LAMMPS data file via write_data, version 23 Jun 2022, timestep = 10000

66 atoms
7 atom types
65 bonds
6 bond types
118 angles
9 angle types
74 dihedrals
14 dihedral types

-21.571952072013435 21.571952072013435 xlo xhi
-8.0894820270048 8.0894820270048 ylo yhi
-8.0894820270048 8.0894820270048 zlo zhi

Masses

1 15.9994
2 1.008
3 12.011
4 15.9994
5 1.008
6 15.9994
7 1.008

Pair Coeffs # lj/cut/tip4p/long

1 0.185199 3.1589
2 0 0
3 0.056 3.58141
4 0.1 2.93997
5 0.035 2.38761
6 0.192 3.14487
7 0.046 0.40001

Bond Coeffs # harmonic

1 0 0.9572
2 222.35 1.53
3 308.79 1.1111
4 359.76 1.1415
5 427.715 1.142
6 544.635 0.96

Angle Coeffs # charmm

1 0 104.52 0 0
2 50 109 0 0
3 26.5 110.1 22.53 2.179
4 45 111.5 0 0
5 13.0258 109.4 0 0
6 35.5 109 5.4 1.802
7 55 108.89 0 0
8 75.7 110.1 0 0
9 95 109.7 0 0

Dihedral Coeffs # charmm

1 0.57 1 0 0
2 0.29 2 0 0
3 0.43 3 0 0
4 0.59 1 180 0
5 1.16 2 0 0
6 0.12 1 0 0
7 0.42 2 0 0
8 0.29 3 0 0
9 2.87 1 180 0
10 0.03 2 0 0
11 0.23 3 0 0
12 1.36 1 180 0
13 0.16 2 0 0
14 1.01 3 0 0

Atoms # full

25 1 5 0.09 -0.5936471639267915 0.9450306762857948 3.473289379311527 0 0 0
6 1 3 -0.01 -3.5298502633375484 0.09240463143235347 6.352365133736104 0 0 0
63 1 5 0.09 -0.24994380389009951 -2.0744672995201054 -5.55328881766253 0 0 0
2 1 5 0.09 -3.743066764040341 2.0008387375932952 5.090713986325926 0 0 0
3 1 5 0.09 -3.4216201549573486 2.261993066501003 6.920112629691304 0 0 0
61 1 5 0.09 -1.1302455902219715 -1.2212389143876272 -7.795878443596704 0 0 0
12 1 5 0.09 -3.9511964569872413 -2.219476730181133 5.224292930396031 0 0 0
59 1 3 -0.01 -0.05067613296362418 -0.964542075601338 -7.458636499149817 0 0 0
9 1 4 -0.34 -3.0216202461243085 -0.5719487457511738 5.628495413767606 0 0 0
1 1 3 0.05 -3.1835873207080096 1.5606464113275682 5.994325784175288 0 0 0
53 1 5 0.09 -0.6267545544319555 3.0590505072768557 -6.667386832606053 0 0 0
10 1 3 -0.01 -3.034540039250818 -1.7671891658077317 5.752401758804895 0 0 0
55 1 3 -0.01 -0.2639584199310268 1.0545012645564995 -7.531859414904944 0 0 0
56 1 5 0.09 -1.4073514697671388 0.9959473092262207 -7.535939813565608 0 0 0
49 1 5 0.09 -0.3471800428118564 2.9464471849863663 -4.584191014660084 0 0 0
14 1 5 0.09 -1.9970426496274143 -3.418957535468182 5.042557011835261 0 0 0
11 1 5 0.09 -3.0411917587148225 -2.2719814946274317 6.79254068084899 0 0 0
43 1 5 0.09 -0.705219081614811 0.5222459387975292 -2.6074720489737144 0 0 0
4 1 6 -0.65 -2.0764991719618915 1.6668610604455811 5.748309080021492 0 0 0
13 1 3 -0.01 -1.8470339685480581 -2.2867170419780294 5.010174091505956 0 0 0
15 1 5 0.09 -1.791117612586763 -1.9445228120189095 3.9375468217492346 0 0 0
16 1 4 -0.34 -0.8738977299217623 -2.0486745594496374 5.627231854716164 0 0 0
5 1 7 0.42 -1.843030217644768 0.9250094900283923 5.17587360080217 0 0 0
7 1 5 0.09 -4.650468322949252 0.10621934594923539 6.2548772738489316 0 0 0
8 1 5 0.09 -3.0067563391762815 -0.17982154251401167 7.359240345710383 0 0 0
29 1 5 0.09 -0.09422579820270059 0.39480180870346293 1.3054711056674204 0 0 0
57 1 5 0.09 -0.0861871994880093 1.1568360474712909 7.512307145147171 0 0 -1
54 1 5 0.09 0.9148486520196584 2.977122915272193 -7.544188113651342 0 0 0
47 1 5 0.09 2.1031830514385783 1.4620426785265508 -4.129409849312169 0 0 0
42 1 5 0.09 0.07342944748580939 0.023471048399142286 -4.175463835375996 0 0 0
41 1 3 -0.01 0.2828938306736215 0.5109145502481791 -3.152402168442657 0 0 0
38 1 3 -0.01 1.284493689953361 -0.4154000514127535 -2.313664054133153 0 0 0
46 1 5 0.09 1.8017990627869038 2.927884729705475 -3.0679504792671017 0 0 0
45 1 3 -0.01 1.3309305483413605 2.1677619936294095 -3.731720242844017 0 0 0
48 1 3 -0.01 0.7977931345561462 2.8632391370141916 -4.95523474326317 0 0 0
50 1 5 0.09 1.2827862020780498 3.8768500271606463 -4.946985063117275 0 0 0
51 1 4 -0.34 1.0070394132671088 2.2231304981299496 -5.935859890294644 0 0 0
44 1 4 -0.34 0.3954757126173226 1.679085030503496 -3.1596187366327317 0 0 0
35 1 5 0.09 3.137405311978358 -0.6660030086516372 -1.1073407249446612 0 0 0
39 1 5 0.09 2.253524575579031 -0.2386657722845058 -2.869596199394556 0 0 0
23 1 4 -0.34 0.33503916069476236 -0.699958196093246 3.654113134789494 0 0 0
22 1 5 0.09 1.8769634842449705 -1.3356986551711572 4.376171539692967 0 0 0
24 1 3 -0.01 0.4280919846283694 0.42103718778287147 3.393540301356039 0 0 0
40 1 5 0.09 0.8148410119768207 -1.4495876085347534 -2.3925263567492023 0 0 0
26 1 5 0.09 1.1439019651363096 1.2104469903214956 3.9242634863094614 0 0 0
18 1 5 0.09 0.7944206064003161 -2.5785731775927614 6.0348247711221825 0 0 0
20 1 3 -0.01 0.8195353002092706 -1.0830240856558375 4.638903277091982 0 0 0
21 1 5 0.09 0.9872624334550957 -0.32735252111187596 5.478664811997566 0 0 0
27 1 3 -0.01 0.8615024597357194 0.6258268511127566 1.8891949900038618 0 0 0
30 1 4 -0.34 1.7758015615695644 -0.06324787763578818 1.659659452394802 0 0 0
28 1 5 0.09 0.9982345003317766 1.7781054739661897 1.826065939572253 0 0 0
36 1 5 0.09 1.9614267242690182 -1.6397981456106439 -0.07742245760957871 0 0 0
17 1 3 -0.01 0.11220760019039361 -2.3197236358476467 5.1115590659842605 0 0 0
37 1 4 -0.34 1.3163228455663212 -0.08596001610368749 -1.2093368727734588 0 0 0
34 1 3 -0.01 2.1435632075582896 -0.6207453671128546 -0.5589293005036445 0 0 0
32 1 5 0.09 3.5581567755207377 0.11351674697902928 0.891218192120186 0 0 0
31 1 3 -0.01 2.4473625501256313 0.23816764357720094 0.7618701520237346 0 0 0
33 1 5 0.09 2.2677140005349763 1.2886457267735492 0.3655364296788154 0 0 0
66 1 7 0.42 1.4084968318770978 -0.8192684612561211 -6.080252306288569 0 0 0
65 1 6 -0.65 1.4876020006901074 -1.7824081861172978 -6.063917146582163 0 0 0
64 1 5 0.09 0.5754403904670704 -3.13951900234911 -6.929064529571075 0 0 0
52 1 3 -0.01 0.24135245543040781 2.3481521264592797 -6.875484897911561 0 0 0
62 1 3 0.05 0.4578634509284478 -2.0405234417009837 -6.490411138939756 0 0 0
19 1 5 0.09 0.09804803449125436 -3.2142341988080547 4.342051986744355 0 0 0
60 1 5 0.09 0.5017453184194945 -1.1789830664214707 7.7501002207097445 0 0 -1
58 1 4 -0.34 0.21172881055726836 0.10417615176643902 -7.040205673486245 0 0 0

Velocities

25 0.004054674225188833 0.007280518388187355 -0.019076916394372565
6 -0.0014120819336229365 -0.004361839824419949 0.0007169021517050385
63 -0.005191899378873934 -0.02750452520982258 0.016176995135109652
2 0.01616655235084603 -0.018499480108129934 -0.0007046413974286167
3 0.012413519328525507 0.0012955443513053182 0.0056667684438427655
61 0.007779719505472897 -0.0020364942047277524 0.00029963864243115213
12 -0.010036236872175742 0.031179281067687047 -0.009074720809691884
59 0.010399154550288356 0.00459228629871654 -0.0015920369352299556
9 -0.003321498396216814 0.0002604314366116017 0.0017439708320792801
1 -0.004157269426431034 0.001292990440508842 0.003501760763177335
53 0.006265430574704368 0.0025211010960392057 -0.0021188308093160416
10 0.003970452961455414 -0.0004677573885258168 -0.0015507531387320005
55 0.0014369905981481206 0.0006362194464545392 0.006261318518422712
56 -0.007303960506441129 -0.03393252414970166 0.017304525502255433
49 -0.012995852600148815 -0.014690815706102603 -0.001775096382323738
14 -0.02793088512473788 0.0006658282740211893 -0.01879229721487696
11 -0.0033613660452901854 -0.012772141966875743 -0.004417863245996503
43 0.015783827297017695 -0.0011615124289900964 0.030120713416180472
4 0.003519147439003881 0.00013485466343877503 0.0038073135542740235
13 0.008203144439962926 2.8640961037583462e-06 -0.001008863522903892
15 -0.00621683842800507 -0.020312571397643454 -0.012024494072711457
16 0.002067354869963854 -0.002127504453281873 0.00584980964996937
5 0.007557173835544697 0.006740770936001674 -0.01418875818342942
7 0.015114115212556485 0.017011031840411247 -0.010642162743216554
8 -0.003259210104634601 2.020069590296059e-05 0.00114603730996354
29 0.008273646269577797 -0.010096074804354987 -0.029367945213393035
57 -0.004135287050894604 0.01569553524159119 -0.001904025153809381
54 -0.00164971747965969 -0.004008424201631659 -0.007460716837607334
47 -0.0010101517568101037 -0.008413891702534117 0.03384231142824768
42 0.0044841674060712 -0.02540642618617562 -0.005400342219463243
41 -0.0008167352324376844 -0.009836210090763053 0.0029550999958059625
38 -0.007007874843449361 -0.002541866528000978 0.004083957661136679
46 0.013090983165044307 -0.004700965732118189 -0.03499992056861182
45 -0.005707451168694738 -0.002314160126665129 -9.013736697567144e-05
48 -0.0014593056139949822 0.0011456242353647848 -0.002572627198976342
50 0.015235529650061145 0.00575344305246081 0.006171006556111978
51 0.004200653586044909 -0.0036860009319726055 0.004957955094160926
44 0.003636969680804212 0.00826859517130307 -0.005770150416604752
35 -0.009277015018805344 0.009386354655704336 -0.0023765945352430037
39 -0.007471221346897757 0.023899954282289814 -0.00810491838149215
23 -0.005049011994894692 0.0015284810250643318 0.003284432003241978
22 -0.0030915802186661065 0.0187223346013333 0.02110505896337548
24 -0.002306425007724819 -0.001052196558841577 -0.008947802858801457
40 -0.0007091739050573841 0.010298679773996636 0.004945394940368515
26 0.0029439766512028786 0.001177481298224899 -0.027819012001082347
18 0.018432687330868967 -0.000982430467173071 0.008626113957917495
20 -0.0033455255424064295 0.002453948285055099 -0.0002777441093608248
21 -0.010851087995642198 0.01352281939569322 0.02473815733126397
27 -0.00546226606899975 0.006000512421161247 0.0051556044484486144
30 -0.003700964132150522 -0.010233815456880992 -0.006947521805149866
28 -0.0005855067385433299 0.00853068875992909 0.027373817137773038
36 0.017080202485619814 -0.006330653649988849 -0.012555094838850303
17 0.005899182809401371 0.0029941158579316336 0.002999622857769904
37 -0.004576717854898956 -0.004560712120563473 0.0039664507062989966
34 -0.005366037918166059 0.009488387843594402 -0.0031159686748819557
32 0.004588321138140218 0.009519285014963316 -0.016829786463462323
31 -0.008435368790201412 -0.008121057096191231 -0.006959120859932734
33 -0.009808907771770996 0.014083218668643208 0.0262570020220613
66 -0.0050779373725775 0.0037308854931527415 0.007249988914853615
65 -0.0009436423958872122 0.003426961506603282 -0.002852514835608666
64 -0.007696752547558951 0.012770025031402888 0.0051293861184511895
52 0.0019396933922228704 0.00884752831254957 -0.001438819160204025
62 0.0055609947854212555 -0.00024807642559806483 0.004368135589636747
19 -0.013701443011067248 0.012342317221396771 -0.0015817633927604218
60 0.003703091447889069 0.0025936981640760476 -0.023044739870112796
58 0.008862325172953725 -0.0017881565189073025 -0.008137068746228064

Bonds

1 4 6 9
2 4 6 7
3 4 6 8
4 2 59 62
5 4 59 60
6 4 59 61
7 4 9 10
8 2 1 6
9 5 1 4
10 4 1 2
11 4 1 3
12 2 10 13
13 4 10 11
14 4 10 12
15 4 55 58
16 4 55 56
17 4 55 57
18 6 4 5
19 4 13 16
20 4 13 14
21 4 13 15
22 4 16 17
23 4 41 44
24 4 41 42
25 4 41 43
26 2 38 41
27 4 38 39
28 4 38 40
29 2 45 48
30 4 45 46
31 4 45 47
32 4 48 51
33 4 48 49
34 4 48 50
35 4 51 52
36 4 44 45
37 4 23 24
38 2 24 27
39 4 24 25
40 4 24 26
41 4 20 23
42 4 20 21
43 4 20 22
44 4 27 30
45 4 27 28
46 4 27 29
47 4 30 31
48 2 17 20
49 4 17 18
50 4 17 19
51 4 37 38
52 4 34 37
53 4 34 35
54 4 34 36
55 2 31 34
56 4 31 32
57 4 31 33
58 6 65 66
59 2 52 55
60 4 52 53
61 4 52 54
62 5 62 65
63 4 62 63
64 4 62 64
65 4 58 59

Angles

1 3 1 6 7
2 3 1 6 8
3 4 1 6 9
4 6 7 6 8
5 5 7 6 9
6 5 8 6 9
7 5 58 59 60
8 5 58 59 61
9 4 58 59 62
10 6 60 59 61
11 3 60 59 62
12 3 61 59 62
13 9 6 9 10
14 6 2 1 3
15 7 2 1 4
16 3 2 1 6
17 7 3 1 4
18 3 3 1 6
19 8 4 1 6
20 5 9 10 11
21 5 9 10 12
22 4 9 10 13
23 6 11 10 12
24 3 11 10 13
25 3 12 10 13
26 3 52 55 56
27 3 52 55 57
28 4 52 55 58
29 6 56 55 57
30 5 56 55 58
31 5 57 55 58
32 2 1 4 5
33 3 10 13 14
34 3 10 13 15
35 4 10 13 16
36 6 14 13 15
37 5 14 13 16
38 5 15 13 16
39 9 13 16 17
40 3 38 41 42
41 3 38 41 43
42 4 38 41 44
43 6 42 41 43
44 5 42 41 44
45 5 43 41 44
46 5 37 38 39
47 5 37 38 40
48 4 37 38 41
49 6 39 38 40
50 3 39 38 41
51 3 40 38 41
52 5 44 45 46
53 5 44 45 47
54 4 44 45 48
55 6 46 45 47
56 3 46 45 48
57 3 47 45 48
58 3 45 48 49
59 3 45 48 50
60 4 45 48 51
61 6 49 48 50
62 5 49 48 51
63 5 50 48 51
64 9 48 51 52
65 9 41 44 45
66 9 20 23 24
67 5 23 24 25
68 5 23 24 26
69 4 23 24 27
70 6 25 24 26
71 3 25 24 27
72 3 26 24 27
73 3 17 20 21
74 3 17 20 22
75 4 17 20 23
76 6 21 20 22
77 5 21 20 23
78 5 22 20 23
79 3 24 27 28
80 3 24 27 29
81 4 24 27 30
82 6 28 27 29
83 5 28 27 30
84 5 29 27 30
85 9 27 30 31
86 5 16 17 18
87 5 16 17 19
88 4 16 17 20
89 6 18 17 19
90 3 18 17 20
91 3 19 17 20
92 9 34 37 38
93 3 31 34 35
94 3 31 34 36
95 4 31 34 37
96 6 35 34 36
97 5 35 34 37
98 5 36 34 37
99 5 30 31 32
100 5 30 31 33
101 4 30 31 34
102 6 32 31 33
103 3 32 31 34
104 3 33 31 34
105 2 62 65 66
106 5 51 52 53
107 5 51 52 54
108 4 51 52 55
109 6 53 52 54
110 3 53 52 55
111 3 54 52 55
112 3 59 62 63
113 3 59 62 64
114 8 59 62 65
115 6 63 62 64
116 7 63 62 65
117 7 64 62 65
118 9 55 58 59

Dihedrals

1 1 1 6 9 10
2 2 1 6 9 10
3 3 1 6 9 10
4 12 58 59 62 65
5 13 58 59 62 65
6 14 58 59 62 65
7 1 6 9 10 13
8 2 6 9 10 13
9 3 6 9 10 13
10 6 6 1 4 5
11 7 6 1 4 5
12 8 6 1 4 5
13 12 4 1 6 9
14 13 4 1 6 9
15 14 4 1 6 9
16 4 9 10 13 16
17 5 9 10 13 16
18 1 52 55 58 59
19 2 52 55 58 59
20 3 52 55 58 59
21 1 10 13 16 17
22 2 10 13 16 17
23 3 10 13 16 17
24 1 13 16 17 20
25 2 13 16 17 20
26 3 13 16 17 20
27 1 38 41 44 45
28 2 38 41 44 45
29 3 38 41 44 45
30 4 37 38 41 44
31 5 37 38 41 44
32 4 44 45 48 51
33 5 44 45 48 51
34 1 45 48 51 52
35 2 45 48 51 52
36 3 45 48 51 52
37 1 48 51 52 55
38 2 48 51 52 55
39 3 48 51 52 55
40 1 41 44 45 48
41 2 41 44 45 48
42 3 41 44 45 48
43 1 20 23 24 27
44 2 20 23 24 27
45 3 20 23 24 27
46 4 23 24 27 30
47 5 23 24 27 30
48 1 17 20 23 24
49 2 17 20 23 24
50 3 17 20 23 24
51 1 24 27 30 31
52 2 24 27 30 31
53 3 24 27 30 31
54 1 27 30 31 34
55 2 27 30 31 34
56 3 27 30 31 34
57 4 16 17 20 23
58 5 16 17 20 23
59 1 34 37 38 41
60 2 34 37 38 41
61 3 34 37 38 41
62 1 31 34 37 38
63 2 31 34 37 38
64 3 31 34 37 38
65 4 30 31 34 37
66 5 30 31 34 37
67 4 51 52 55 58
68 5 51 52 55 58
69 6 59 62 65 66
70 7 59 62 65 66
71 8 59 62 65 66
72 1 55 58 59 62
73 2 55 58 59 62
74 3 55 58 59 62
