LAMMPS data file via write_data, version 20 Nov 2019, timestep = 10000

66 atoms
7 atom types
65 bonds
6 bond types
118 angles
9 angle types
74 dihedrals
14 dihedral types

-2.1661999999999999e+01 2.1661999999999999e+01 xlo xhi
-8.1229999999999993e+00 8.1229999999999993e+00 ylo yhi
-8.1229999999999993e+00 8.1229999999999993e+00 zlo zhi

Masses

1 15.9994
2 1.008
3 12.011
4 15.9994
5 1.008
6 15.9994
7 1.008

Pair Coeffs # lj/cut/tip4p/long

1 0.185199 3.1589
2 0 0
3 0.056 3.58141
4 0.1 2.93997
5 0.035 2.38761
6 0.192 3.14487
7 0.046 0.40001

Bond Coeffs # harmonic

1 0 0.9572
2 222.35 1.53
3 308.79 1.1111
4 359.76 1.1415
5 427.715 1.142
6 544.635 0.96

Angle Coeffs # charmm

1 0 104.52 0 0
2 50 109 0 0
3 26.5 110.1 22.53 2.179
4 45 111.5 0 0
5 13.0258 109.4 0 0
6 35.5 109 5.4 1.802
7 55 108.89 0 0
8 75.7 110.1 0 0
9 95 109.7 0 0

Dihedral Coeffs # charmm

1 0.57 1 0 0
2 0.29 2 0 0
3 0.43 3 0 0
4 0.59 1 180 0
5 1.16 2 0 0
6 0.12 1 0 0
7 0.42 2 0 0
8 0.29 3 0 0
9 2.87 1 180 0
10 0.03 2 0 0
11 0.23 3 0 0
12 1.36 1 180 0
13 0.16 2 0 0
14 1.01 3 0 0

Atoms # full

51 1 4 -3.4000000000000002e-01 -2.3211897417562719e+00 -8.0573643970945286e-01 5.7611189176696511e+00 0 0 0
12 1 5 8.9999999999999997e-02 -2.3943455851297341e-01 -2.1954399979285708e+00 -5.3133010236831257e+00 0 0 0
4 1 6 -6.5000000000000002e-01 -1.4554763736352736e+00 1.6652305284807032e+00 -6.4218057443784531e+00 0 0 0
1 1 3 5.0000000000000003e-02 -2.2561705599665123e+00 8.5226159805447732e-01 -6.3129654713960557e+00 0 0 0
8 1 5 8.9999999999999997e-02 -2.2974894169276836e+00 -1.2564345901748124e+00 -6.3482111743884833e+00 0 0 0
6 1 3 -1.0000000000000000e-02 -1.5516799930547363e+00 -4.9712475797965522e-01 -5.9727034642049537e+00 0 0 0
38 1 3 -1.0000000000000000e-02 -6.6251781518513908e-01 -2.0679666126990068e+00 1.6683404576843948e+00 0 0 0
57 1 5 8.9999999999999997e-02 -8.6088493193830429e-01 4.5981337257373761e-01 7.3869111846476212e+00 0 0 0
39 1 5 8.9999999999999997e-02 -8.9683548031011684e-01 -2.9253696296121587e+00 9.3230371240399612e-01 0 0 0
3 1 5 8.9999999999999997e-02 -2.9958584845899896e+00 1.1162309892817182e+00 -5.4219092598778529e+00 0 0 0
40 1 5 8.9999999999999997e-02 -1.6856109503344643e-01 -2.4603103012884682e+00 2.5636991683059320e+00 0 0 0
41 1 3 -1.0000000000000000e-02 -2.0607486506074624e+00 -1.4895529783565464e+00 1.9829481311867403e+00 0 0 0
43 1 5 8.9999999999999997e-02 -2.1229294350656658e+00 -3.8161604290397000e-01 1.5867925230633415e+00 0 0 0
46 1 5 8.9999999999999997e-02 -3.9370641923617788e+00 -1.5484044502494743e+00 3.1420090659627040e+00 0 0 0
45 1 3 -1.0000000000000000e-02 -2.9347829041155933e+00 -1.1223368575979087e+00 3.6250274357195176e+00 0 0 0
42 1 5 8.9999999999999997e-02 -2.7666942822537091e+00 -2.1120714536086687e+00 1.3540292247286290e+00 0 0 0
44 1 4 -3.4000000000000002e-01 -2.0123930342871583e+00 -1.3806213578618121e+00 3.0929011843734062e+00 0 0 0
47 1 5 8.9999999999999997e-02 -3.0562968654169516e+00 -2.7165597482496560e-02 3.7649944365611909e+00 0 0 0
60 1 5 8.9999999999999997e-02 -8.7061099854450008e-01 2.1650075499217483e+00 6.1012016590720748e+00 0 0 0
48 1 3 -1.0000000000000000e-02 -2.8583041644219991e+00 -1.5975294264054798e+00 5.0672205178861516e+00 0 0 0
50 1 5 8.9999999999999997e-02 -2.6971689320010270e+00 -2.6994808484737813e+00 5.1625495784331132e+00 0 0 0
49 1 5 8.9999999999999997e-02 -3.7634018062502226e+00 -1.3990196878302308e+00 5.6569161951445599e+00 0 0 0
53 1 5 8.9999999999999997e-02 -1.3065988970548947e+00 -1.8030668184729139e+00 6.8868083555122217e+00 0 0 0
9 1 4 -3.4000000000000002e-01 -4.7051296436782297e-01 -5.5002550810265627e-01 -6.3953341260506829e+00 0 0 0
54 1 5 8.9999999999999997e-02 -6.0282234012837510e-01 -1.7068204552760684e+00 5.1534904096418703e+00 0 0 0
5 1 7 4.1999999999999998e-01 -6.6404307931106377e-01 1.1264281275186669e+00 -6.2777926693121984e+00 0 0 0
2 1 5 8.9999999999999997e-02 -2.9482684975773736e+00 7.9674760398336120e-01 -7.2316578264443034e+00 0 0 0
52 1 3 -1.0000000000000000e-02 -1.2093503869198465e+00 -1.0948866478760115e+00 5.9683625559114999e+00 0 0 0
55 1 3 -1.0000000000000000e-02 -2.7194798037704887e-01 -1.4764718404731382e-02 6.4878109187048958e+00 0 0 0
58 1 4 -3.4000000000000002e-01 -1.5259470929549954e-01 7.2104771680418045e-01 5.6043195528573166e+00 0 0 0
7 1 5 8.9999999999999997e-02 -1.6024410707207606e+00 -7.1171023682323975e-01 -4.8369819412572364e+00 0 0 0
37 1 4 -3.4000000000000002e-01 -5.9522368977894258e-02 -1.2061432845636784e+00 1.1606027023031285e+00 0 0 0
33 1 5 8.9999999999999997e-02 2.9494716771003375e+00 -3.8185728722860812e-01 7.4536178549948173e-01 0 0 0
26 1 5 8.9999999999999997e-02 6.8260308340379416e-01 4.8735212628014302e-01 -2.5960307602039219e+00 0 0 0
23 1 4 -3.4000000000000002e-01 2.2733669599565061e+00 1.2287676415366742e+00 -2.8336191608033383e+00 0 0 0
28 1 5 8.9999999999999997e-02 8.5575714476934372e-01 1.9009078421054713e+00 -9.0082181898103422e-02 0 0 0
61 1 5 8.9999999999999997e-02 6.8246165882921295e-01 1.9741347224099226e+00 6.9190219589901352e+00 0 0 0
25 1 5 8.9999999999999997e-02 6.8938531899896172e-01 2.2987014042793241e+00 -2.3562512920845533e+00 0 0 0
31 1 3 -1.0000000000000000e-02 1.7920877308218097e+00 -1.9313839260503701e-01 6.0173815397355501e-01 0 0 0
15 1 5 8.9999999999999997e-02 2.3684360759351035e+00 -1.4570820451199764e+00 -6.0667665632881560e+00 0 0 0
30 1 4 -3.4000000000000002e-01 1.5977265154324618e+00 8.2718354987782711e-02 -4.9525928386333107e-01 0 0 0
14 1 5 8.9999999999999997e-02 1.4563284950054818e+00 -1.2085062399383177e+00 -4.3605910876455791e+00 0 0 0
17 1 3 -1.0000000000000000e-02 2.5417483710651689e+00 7.5924560466632129e-01 -5.1084412511868100e+00 0 0 0
18 1 5 8.9999999999999997e-02 3.5023263101378297e+00 1.7569106385632105e-01 -5.0484551641006750e+00 0 0 0
22 1 5 8.9999999999999997e-02 1.7455013707777094e+00 2.6705522567088225e+00 -4.2104856569505094e+00 0 0 0
19 1 5 8.9999999999999997e-02 2.5438764349824785e+00 1.4470597748040781e+00 -6.0553977629505056e+00 0 0 0
16 1 4 -3.4000000000000002e-01 1.5538680052776881e+00 2.3841168689296643e-01 -5.4174202537701914e+00 0 0 0
21 1 5 8.9999999999999997e-02 3.3653520611802343e+00 2.0473289278505420e+00 -3.6730975160267065e+00 0 0 0
24 1 3 -1.0000000000000000e-02 1.2957026772036402e+00 1.3623602951625557e+00 -2.2311159543485384e+00 0 0 0
13 1 3 -1.0000000000000000e-02 1.5418491678941664e+00 -9.1822469366171033e-01 -5.4580086164407602e+00 0 0 0
20 1 3 -1.0000000000000000e-02 2.3063845675242716e+00 1.7166802816639368e+00 -3.9198476637425386e+00 0 0 0
29 1 5 8.9999999999999997e-02 2.5598157244390607e+00 1.6558835635371425e+00 -5.2103728319549802e-01 0 0 0
27 1 3 -1.0000000000000000e-02 1.5129088909938209e+00 1.2197613248730346e+00 -7.4919006377995001e-01 0 0 0
32 1 5 8.9999999999999997e-02 1.6546295530974136e+00 5.7521115770827735e-01 1.4537761512792262e+00 0 0 0
56 1 5 8.9999999999999997e-02 7.0111900766448432e-01 -5.7542195782264804e-01 6.7549261809497887e+00 0 0 0
35 1 5 8.9999999999999997e-02 1.2308794945329196e+00 -2.2091950558576650e+00 4.2092734745136827e-02 0 0 0
10 1 3 -1.0000000000000000e-02 1.9040562258944607e-01 -1.4535555052289535e+00 -6.0408273836741531e+00 0 0 0
34 1 3 -1.0000000000000000e-02 1.0628056267056194e+00 -1.5376415913931347e+00 9.7729525440114384e-01 0 0 0
36 1 5 8.9999999999999997e-02 1.7977839791581349e+00 -2.0925902795791296e+00 1.7274492110438999e+00 0 0 0
64 1 5 8.9999999999999997e-02 1.7434673648039287e+00 3.1078322670828635e+00 5.0820102522015516e+00 0 0 0
65 1 6 -6.5000000000000002e-01 1.3429673738311885e+00 1.6913495120985831e+00 3.9368844530477132e+00 0 0 0
11 1 5 8.9999999999999997e-02 4.5111162880257116e-01 -2.1236595616057214e+00 -6.9210731336020723e+00 0 0 0
66 1 7 4.1999999999999998e-01 8.9452208812860945e-01 8.3598181138833927e-01 3.9432136798547606e+00 0 0 0
59 1 3 -1.0000000000000000e-02 1.7924679011949254e-01 1.7693122236198062e+00 5.9045002521370415e+00 0 0 0
62 1 3 5.0000000000000003e-02 9.2837316861978447e-01 2.4042752416777708e+00 4.7105310032153351e+00 0 0 0
63 1 5 8.9999999999999997e-02 5.1695545659920059e-02 2.9750425554431223e+00 4.2137874942921938e+00 0 0 0

Velocities

51 4.0313672028978809e-03 -3.0124965668413320e-03 -1.5329886436028588e-03
12 -3.5281418026797931e-03 -1.4593283396809698e-02 -2.0566695214245135e-02
4 -2.9494577019667539e-04 -1.8458619723378663e-03 5.0107026643979660e-03
1 -1.0713148344680624e-04 -1.2342401566825367e-02 -1.2327172526340219e-03
8 6.4398172333229742e-03 5.1162539796194128e-03 -3.9166910254460662e-03
6 3.7267669741541222e-03 3.7343853415618703e-04 6.5594636302777733e-03
38 -8.6639515670063824e-03 -4.9816792472891897e-04 2.7706306633763331e-03
57 -4.3535246290053462e-03 1.1559337849112380e-03 -1.9751697877760824e-02
39 1.8704331760697794e-02 -3.2341990640174130e-03 3.0554873242138812e-02
3 1.6031444748401999e-02 -1.6903834801631035e-02 7.2150560835351867e-03
40 2.9670856767657515e-03 -1.4188352695160266e-02 1.1388985724752726e-02
41 -7.2397117564310621e-03 1.4387254640660797e-03 -1.5767252347228535e-03
43 -1.8267462712599804e-02 1.1855645196508087e-02 8.8624433097717423e-03
46 -1.3334973538196541e-02 -3.3662579307569881e-03 -5.3512850805827183e-03
45 5.3183537124539514e-03 6.5942471596039766e-04 -2.7051661175228410e-03
42 -3.2943339108929319e-02 -6.3207374799887552e-03 -6.0828966236569750e-03
44 5.4342383639532779e-06 5.2370669306276594e-03 -4.8314870329550811e-03
47 -1.1070520640045713e-02 -3.8834908289950075e-03 -5.6365804926292321e-03
60 9.3935167654166465e-04 9.8314363967699596e-03 -4.5470904998041123e-03
48 -6.9572608561218590e-03 1.4058019753817456e-03 1.9643190493231757e-03
50 -2.1534185400181394e-03 4.9100103026851367e-03 -1.1763854652260113e-02
49 -1.6851191015216712e-03 3.6469208436044065e-02 -2.6918209873025321e-02
53 8.0966479799632184e-03 -5.9403641111474526e-04 -3.0029731144592450e-02
9 4.8166889233580285e-03 4.5323791303671291e-04 -9.7091792315151144e-03
54 -1.1787947033284216e-02 3.6040285879953872e-02 -1.4959974665896483e-02
5 -2.6271353177215917e-03 1.0811125139079334e-02 1.7465046991369054e-02
2 -3.2448842179286065e-03 6.0287363776143146e-03 -6.2821612908771428e-04
52 2.5442362013264283e-03 -5.7523890838005591e-04 4.7231954601321003e-03
55 5.9524544238104644e-03 -1.1361462153883263e-03 5.6822417576563927e-03
58 5.4316399546932457e-03 -2.7172086855347857e-03 6.0015276271856823e-03
7 -4.5534183317504058e-03 3.8588821669220771e-02 -9.7753460040039559e-04
37 5.1954370693508946e-03 1.2323274454754536e-04 -2.2768907508628105e-03
33 7.9533413891371102e-04 -1.1532296049539642e-02 -8.6355614782258738e-03
26 -8.4362424738977995e-03 -1.2453420565907118e-02 -4.5918768212547117e-03
23 -5.8320682917278035e-03 2.1797239914239448e-03 -1.4143960870821397e-03
28 -7.6962372140922065e-03 -3.8728994600474766e-03 -4.9925632110612581e-03
61 -1.0221820558740649e-02 9.0714631550819992e-04 -2.4678662986718876e-03
25 -2.0694296650077854e-02 -3.9378456693119880e-02 -1.7710449703986920e-02
31 2.0054110295962269e-03 3.0580532205091177e-03 5.1924551788705055e-03
15 1.9882292606505189e-02 2.0127827411877720e-02 -6.1502883807172488e-03
30 6.0034051399334770e-03 4.5803207073391973e-03 -6.9285997352941490e-03
14 -1.6305863658491564e-02 -1.1492459279789305e-02 -2.2147130853603977e-03
17 -6.3462142830065871e-03 6.0541554681145895e-04 9.0140709658599188e-03
18 2.2657642152371514e-03 -2.0269349341073498e-02 -1.7108674132196609e-02
22 -2.9113395357377139e-03 7.3825599589216881e-03 1.8412431030753486e-02
19 5.9767496023075874e-03 4.7467363509383153e-04 -3.1630103528972942e-03
16 -6.0258816139830253e-03 -2.5065865114368116e-03 -9.4322805908222094e-04
21 5.5670208589484868e-03 -1.3705739047930751e-02 -3.1699442672032947e-03
24 -4.2476047087327117e-03 -5.0116498908477133e-03 6.0364784847378073e-04
13 -1.5911809126027205e-04 -5.3513322171137318e-03 -1.2154051681426349e-03
20 -4.7507432334643407e-03 -9.0021335189669361e-03 2.7724782443094838e-03
29 1.8134737275361129e-04 8.3883808172242284e-03 1.6597534152334816e-03
27 -2.4203159377375128e-03 7.9031263273300813e-03 -4.9290407058192728e-03
32 -1.6030697325871025e-02 1.6906497328347751e-02 -1.7565199239270253e-02
56 1.9123251778759488e-02 -4.3667300643940475e-03 4.6851293784963943e-02
35 1.1739226121020267e-02 4.5459568793565401e-03 -9.7612194950349868e-03
10 -1.2502132926304305e-02 4.0288505573584940e-03 4.5484886613499087e-03
34 2.8662893238915743e-03 -3.0641565365681438e-03 1.3783160242193048e-03
36 -1.8870269389745644e-02 4.6953069938501105e-03 -5.6466932275407869e-03
64 -7.6199984710388939e-03 1.5418061834287292e-02 -1.3245442225504730e-03
65 7.3840208245460866e-03 3.6485372869017917e-03 -1.7042618767258019e-03
11 1.5712833348295659e-02 2.0322746865430459e-02 7.5592343108232167e-03
66 9.5410896540072503e-03 3.8526682161956318e-03 2.8766545096717520e-02
59 3.1229426034016039e-03 5.5822992181934995e-03 -2.6672339181218981e-03
62 4.7562277743881656e-03 -2.0184549220130057e-03 8.2321141073683974e-04
63 2.0844307867331220e-02 -1.4971186462774115e-02 -9.9812854992920638e-03

Bonds

1 4 51 52
2 6 4 5
3 2 1 6
4 5 1 4
5 4 1 2
6 4 1 3
7 4 6 9
8 4 6 7
9 4 6 8
10 2 38 41
11 4 38 39
12 4 38 40
13 4 41 44
14 4 41 42
15 4 41 43
16 2 45 48
17 4 45 46
18 4 45 47
19 4 44 45
20 4 48 51
21 4 48 49
22 4 48 50
23 4 9 10
24 2 52 55
25 4 52 53
26 4 52 54
27 4 55 58
28 4 55 56
29 4 55 57
30 4 58 59
31 4 37 38
32 4 23 24
33 2 31 34
34 4 31 32
35 4 31 33
36 4 30 31
37 2 17 20
38 4 17 18
39 4 17 19
40 4 16 17
41 2 24 27
42 4 24 25
43 4 24 26
44 4 13 16
45 4 13 14
46 4 13 15
47 4 20 23
48 4 20 21
49 4 20 22
50 4 27 30
51 4 27 28
52 4 27 29
53 2 10 13
54 4 10 11
55 4 10 12
56 4 34 37
57 4 34 35
58 4 34 36
59 6 65 66
60 2 59 62
61 4 59 60
62 4 59 61
63 5 62 65
64 4 62 63
65 4 62 64

Angles

1 9 48 51 52
2 2 1 4 5
3 6 2 1 3
4 7 2 1 4
5 3 2 1 6
6 7 3 1 4
7 3 3 1 6
8 8 4 1 6
9 3 1 6 7
10 3 1 6 8
11 4 1 6 9
12 6 7 6 8
13 5 7 6 9
14 5 8 6 9
15 5 37 38 39
16 5 37 38 40
17 4 37 38 41
18 6 39 38 40
19 3 39 38 41
20 3 40 38 41
21 3 38 41 42
22 3 38 41 43
23 4 38 41 44
24 6 42 41 43
25 5 42 41 44
26 5 43 41 44
27 5 44 45 46
28 5 44 45 47
29 4 44 45 48
30 6 46 45 47
31 3 46 45 48
32 3 47 45 48
33 9 41 44 45
34 3 45 48 49
35 3 45 48 50
36 4 45 48 51
37 6 49 48 50
38 5 49 48 51
39 5 50 48 51
40 9 6 9 10
41 5 51 52 53
42 5 51 52 54
43 4 51 52 55
44 6 53 52 54
45 3 53 52 55
46 3 54 52 55
47 3 52 55 56
48 3 52 55 57
49 4 52 55 58
50 6 56 55 57
51 5 56 55 58
52 5 57 55 58
53 9 55 58 59
54 9 34 37 38
55 9 20 23 24
56 5 30 31 32
57 5 30 31 33
58 4 30 31 34
59 6 32 31 33
60 3 32 31 34
61 3 33 31 34
62 9 27 30 31
63 5 16 17 18
64 5 16 17 19
65 4 16 17 20
66 6 18 17 19
67 3 18 17 20
68 3 19 17 20
69 9 13 16 17
70 5 23 24 25
71 5 23 24 26
72 4 23 24 27
73 6 25 24 26
74 3 25 24 27
75 3 26 24 27
76 3 10 13 14
77 3 10 13 15
78 4 10 13 16
79 6 14 13 15
80 5 14 13 16
81 5 15 13 16
82 3 17 20 21
83 3 17 20 22
84 4 17 20 23
85 6 21 20 22
86 5 21 20 23
87 5 22 20 23
88 3 24 27 28
89 3 24 27 29
90 4 24 27 30
91 6 28 27 29
92 5 28 27 30
93 5 29 27 30
94 5 9 10 11
95 5 9 10 12
96 4 9 10 13
97 6 11 10 12
98 3 11 10 13
99 3 12 10 13
100 3 31 34 35
101 3 31 34 36
102 4 31 34 37
103 6 35 34 36
104 5 35 34 37
105 5 36 34 37
106 2 62 65 66
107 5 58 59 60
108 5 58 59 61
109 4 58 59 62
110 6 60 59 61
111 3 60 59 62
112 3 61 59 62
113 3 59 62 63
114 3 59 62 64
115 8 59 62 65
116 6 63 62 64
117 7 63 62 65
118 7 64 62 65

Dihedrals

1 1 48 51 52 55
2 2 48 51 52 55
3 3 48 51 52 55
4 6 6 1 4 5
5 7 6 1 4 5
6 8 6 1 4 5
7 12 4 1 6 9
8 13 4 1 6 9
9 14 4 1 6 9
10 1 1 6 9 10
11 2 1 6 9 10
12 3 1 6 9 10
13 4 37 38 41 44
14 5 37 38 41 44
15 1 38 41 44 45
16 2 38 41 44 45
17 3 38 41 44 45
18 4 44 45 48 51
19 5 44 45 48 51
20 1 41 44 45 48
21 2 41 44 45 48
22 3 41 44 45 48
23 1 45 48 51 52
24 2 45 48 51 52
25 3 45 48 51 52
26 1 6 9 10 13
27 2 6 9 10 13
28 3 6 9 10 13
29 4 51 52 55 58
30 5 51 52 55 58
31 1 52 55 58 59
32 2 52 55 58 59
33 3 52 55 58 59
34 1 55 58 59 62
35 2 55 58 59 62
36 3 55 58 59 62
37 1 34 37 38 41
38 2 34 37 38 41
39 3 34 37 38 41
40 1 20 23 24 27
41 2 20 23 24 27
42 3 20 23 24 27
43 4 30 31 34 37
44 5 30 31 34 37
45 1 27 30 31 34
46 2 27 30 31 34
47 3 27 30 31 34
48 4 16 17 20 23
49 5 16 17 20 23
50 1 13 16 17 20
51 2 13 16 17 20
52 3 13 16 17 20
53 4 23 24 27 30
54 5 23 24 27 30
55 1 10 13 16 17
56 2 10 13 16 17
57 3 10 13 16 17
58 1 17 20 23 24
59 2 17 20 23 24
60 3 17 20 23 24
61 1 24 27 30 31
62 2 24 27 30 31
63 3 24 27 30 31
64 4 9 10 13 16
65 5 9 10 13 16
66 1 31 34 37 38
67 2 31 34 37 38
68 3 31 34 37 38
69 12 58 59 62 65
70 13 58 59 62 65
71 14 58 59 62 65
72 6 59 62 65 66
73 7 59 62 65 66
74 8 59 62 65 66
