LAMMPS data file via write_data, version 23 Jun 2022, timestep = 30000

1086 atoms
7 atom types
724 bonds
6 bond types
362 angles
9 angle types
0 dihedrals
14 dihedral types

-21.78456805167427 21.78456805167427 xlo xhi
-8.1692130193775 8.1692130193775 ylo yhi
-8.1692130193775 8.1692130193775 zlo zhi

Masses

1 15.9994
2 1.008
3 12.011
4 15.9994
5 1.008
6 15.9994
7 1.008

Pair Coeffs # lj/cut/tip4p/long

1 0.185199 3.1589
2 0 0
3 0.056 3.58141
4 0.1 2.93997
5 0.035 2.38761
6 0.192 3.14487
7 0.046 0.40001

Bond Coeffs # harmonic

1 0 0.9572
2 222.35 1.53
3 308.79 1.1111
4 359.76 1.1415
5 427.715 1.142
6 544.635 0.96

Angle Coeffs # charmm

1 0 104.52 0 0
2 50 109 0 0
3 26.5 110.1 22.53 2.179
4 45 111.5 0 0
5 13.0258 109.4 0 0
6 35.5 109 5.4 1.802
7 55 108.89 0 0
8 75.7 110.1 0 0
9 95 109.7 0 0

Dihedral Coeffs # charmm

1 0.57 1 0 0
2 0.29 2 0 0
3 0.43 3 0 0
4 0.59 1 180 0
5 1.16 2 0 0
6 0.12 1 0 0
7 0.42 2 0 0
8 0.29 3 0 0
9 2.87 1 180 0
10 0.03 2 0 0
11 0.23 3 0 0
12 1.36 1 180 0
13 0.16 2 0 0
14 1.01 3 0 0

Atoms # full

673 225 1 -1.054 -13.326500030961384 -5.264218929802654 -5.746747092912063 0 0 0
675 225 2 0.527 -12.66807908950068 -5.958902890262371 -5.760004745440592 0 0 0
674 225 2 0.527 -13.55736893339914 -5.169980327148474 -4.822572846081428 0 0 0
711 237 2 0.527 -15.521911246599991 -3.4066527938229285 -7.2984591840635265 0 0 1
710 237 2 0.527 -15.95251007742019 -4.544095806143534 -6.396892690935238 0 0 1
303 101 2 0.527 -15.973288795215176 -5.601465360847433 -3.968034121955041 0 0 0
301 101 1 -1.054 -16.56572706401901 -5.562337012405325 -4.718877571673254 0 0 0
302 101 2 0.527 -16.578684608124966 -6.456167127421215 -5.061192247397616 0 0 0
709 237 1 -1.054 -15.798643341840247 -4.322846964600047 -7.31539884850984 0 0 1
15 5 2 0.527 -12.190086848169008 -1.161588751920176 -2.249351148865636 0 0 0
273 91 2 0.527 -14.582955002011555 -4.353757006389966 -2.7317550329767277 0 0 0
271 91 1 -1.054 -14.515670884897059 -5.301470768137669 -2.8483406228339607 0 0 0
272 91 2 0.527 -14.736283981832322 -5.66503158367763 -1.9907663039822268 0 0 0
254 85 2 0.527 -19.46431849428884 -4.93683250121483 -4.276605908238725 0 0 1
253 85 1 -1.054 -19.3600470684943 -5.708592001203204 -3.7200143845422433 0 0 1
255 85 2 0.527 -18.447970079549915 -5.674927026277524 -3.4314633860205204 0 0 1
891 297 2 0.527 -19.466748020910895 -7.605986353573329 -3.9969383218635635 1 0 0
103 35 1 -1.054 -21.600726024390163 -1.9325861814885288 -3.1992406913748015 0 0 0
416 139 2 0.527 -19.95784261403834 -3.8148328865848624 -7.649192394356559 0 0 0
237 79 2 0.527 -13.166855784604843 -2.1045728332986524 -7.99071143693417 0 0 0
1287 429 2 0.527 -20.913962037912622 -4.127879999249233 -0.6333948376296643 1 0 -1
736 246 1 -1.054 -19.38285583599258 -3.397912760675669 -5.787411473505206 0 0 1
737 246 2 0.527 -20.088625580583976 -2.987362198892362 -5.287795081058629 0 0 1
738 246 2 0.527 -18.59413613489161 -2.9251328812523143 -5.521553973502529 0 0 1
224 75 2 0.527 -16.912641603417615 -7.6772663045205585 -6.782575859155264 0 0 0
219 73 2 0.527 -16.016913469149532 -6.375425141415208 -0.3010873190322654 0 0 0
530 177 2 0.527 -16.616980693365672 -1.9900355307805935 -5.6575976143672975 0 0 1
1382 461 2 0.527 -18.318234524491466 -1.4605483983105723 -0.8697841500440813 1 0 -1
217 73 1 -1.054 -15.06491668303228 -6.275915068117303 -0.2921879714312805 0 0 0
1285 429 1 -1.054 -20.601776182054337 -3.2742114569260385 -0.33327766447606955 1 0 -1
465 155 2 0.527 -12.380871775108925 -6.305882430198209 -7.977550523426301 0 0 0
133 45 1 -1.054 -15.364792001971423 -2.678595299753872 -2.7698520213787186 0 0 -1
134 45 2 0.527 -14.73862262640186 -2.0591574534060912 -3.1446710171462797 0 0 -1
135 45 2 0.527 -16.089442915669473 -2.695242782017604 -3.395058854222418 0 0 -1
652 218 1 -1.054 -18.07097630334684 -7.010120354579736 -1.1607736690395143 0 0 0
653 218 2 0.527 -17.623110160663334 -7.705189798189159 -1.6430333175088876 0 0 0
654 218 2 0.527 -18.587906220072583 -7.471117006733076 -0.5000580015957086 0 0 0
529 177 1 -1.054 -17.18482482296973 -2.05694694348045 -4.889902992088222 0 0 1
531 177 2 0.527 -17.798648633265568 -1.3281324762030176 -4.981166736937712 0 0 1
542 181 2 0.527 -18.316953782349696 -2.1926842768872525 -3.3399886033520287 0 0 0
541 181 1 -1.054 -18.90002085959731 -2.0366347255110817 -2.5970481143953927 0 0 0
296 99 2 0.527 -13.337318747751866 -0.30653829303937474 -3.2747772092019893 0 0 -1
181 61 1 -1.054 -15.337937483267929 -1.365778856042243 -7.138507297588915 0 0 1
182 61 2 0.527 -14.912427300688979 -0.8504253751641464 -6.453210227734947 0 0 1
183 61 2 0.527 -15.70060650166227 -0.7141292731784885 -7.738593636469308 0 0 1
1286 429 2 0.527 -19.668146385319815 -3.404878437636916 -0.16731979556680443 1 0 -1
187 63 1 -1.054 -11.324671490995797 -4.156876622313643 -0.36114203219203134 0 0 0
543 181 2 0.527 -19.78097014351024 -2.0957275886104805 -2.9667997728400666 0 0 0
297 99 2 0.527 -14.805559939096455 -0.062227777618273805 -3.5515338113154478 0 0 -1
339 113 2 0.527 -11.306567299167863 -0.7638241351615598 -4.675124575294488 0 0 0
295 99 1 -1.054 -14.042167683416585 -0.5372589997470056 -3.8799512280713646 0 0 -1
226 76 1 -1.054 -20.679587733759437 -7.444408656228598 -8.066189373056254 0 1 0
743 248 2 0.527 -11.707612668627927 -8.101554996780699 -4.514025576715195 0 1 0
227 76 2 0.527 -21.448527769274104 -7.731535798062597 -7.573676197998166 0 1 0
356 119 2 0.527 -18.288245224096826 -5.273538928612492 -0.3158365608410074 0 0 0
595 199 1 -1.054 -14.509260786501423 -7.033428523939024 -8.164592631564966 0 1 0
597 199 2 0.527 -14.661419081510939 -6.088446523954488 -8.152919805045876 0 1 0
596 199 2 0.527 -15.21941517244809 -7.397408203690659 -7.6359350596825335 0 1 0
204 68 2 0.527 -20.916944941017412 -0.9986171709014755 -0.9759538528438352 0 0 0
1383 461 2 0.527 -17.027564951042642 -1.6196413816227304 -0.09462176481557627 1 0 -1
1381 461 1 -1.054 -17.80492674217697 -1.0655302496402488 -0.1649748736518788 1 0 -1
336 112 2 0.527 -20.61809376178034 -5.613570860781384 -2.059470176048211 0 0 -1
335 112 2 0.527 -21.390255141320814 -6.793486139842924 -1.508488714622465 0 0 -1
188 63 2 0.527 -11.647308831647624 -3.537036078250811 -1.0153459720306328 0 0 0
14 5 2 0.527 -12.250168573277556 -2.401596603090626 -3.1158299036260724 0 0 0
698 233 2 0.527 -11.235488206667759 -3.082700341681922 -4.5865039597996855 0 0 0
13 5 1 -1.054 -12.17630915203407 -2.117671003322914 -2.204670622215959 0 0 0
699 233 2 0.527 -12.396074127555078 -3.260870104968041 -5.542176209141717 0 0 0
697 233 1 -1.054 -12.030301399627941 -2.6516814005887177 -4.900787884022002 0 0 0
464 155 2 0.527 -12.196511685524515 -4.805040410912577 -7.903398596820205 0 0 0
202 68 1 -1.054 -21.216923743801495 -0.2935467713647677 -0.4022217768382399 0 0 0
742 248 1 -1.054 -11.204541085565946 -7.441992543027461 -4.9917040212469175 0 1 0
334 112 1 -1.054 -21.254251028565243 -5.853946024750016 -1.3858206657393897 0 0 -1
159 53 2 0.527 -11.201900851972415 -7.77706443723512 -0.9067174083887055 0 0 0
1404 468 2 0.527 -10.982367864504681 -5.775796465089664 -4.085757540618444 1 0 -1
719 240 2 0.527 -11.183123464111734 3.5838273395612283 -1.4156954820633354 0 -1 1
1260 420 2 0.527 -21.039524828115393 0.5114735153226508 -7.534017274008463 1 0 1
289 97 1 -1.054 -12.746109114631244 0.7330561420695503 -1.7364984658159761 0 0 -1
889 297 1 -1.054 -19.433442969932823 7.780091098291686 -4.087510123334376 1 -1 0
327 109 2 0.527 -20.852790541686094 3.3247895740879994 -4.401702515750596 0 -1 1
741 247 2 0.527 -13.346871834771678 6.91436218213158 -3.725887741830399 0 -1 0
429 143 2 0.527 -19.570385721754963 0.23996178952976877 -5.469618653263186 0 0 1
1317 439 2 0.527 -19.909412110181133 7.1062804127425565 -7.554937075375308 1 0 0
1258 420 1 -1.054 -21.377994393637735 0.3272396266505684 -6.65778877791019 1 0 1
427 143 1 -1.054 -18.835768002155675 0.03433370302674987 -4.891402912083386 0 0 1
431 144 2 0.527 -17.882700992709314 6.869904167099444 -3.204119372464299 0 0 0
225 75 2 0.527 -16.67791161618344 7.187280742851808 -6.528417491658437 0 -1 0
223 75 1 -1.054 -16.382697402864736 8.05786085088166 -6.261548381536014 0 -1 0
1316 439 2 0.527 -19.39345616375369 7.0165172194787875 -6.134462895160272 1 0 0
740 247 2 0.527 -12.097734179783254 6.083340599727835 -3.928553212616576 0 -1 0
1422 474 2 0.527 -15.903262283601086 6.536317150559718 -3.868585768247053 1 -1 0
1420 474 1 -1.054 -15.217443781016371 6.387445906441048 -4.519562239388254 1 -1 0
90 30 2 0.527 -19.72714522488736 1.8364981290243438 -2.6505424730712166 0 0 2
1421 474 2 0.527 -15.619682091461545 6.633686895791641 -5.3525385922280275 1 -1 0
739 247 1 -1.054 -12.408681973213348 6.899374619532262 -3.536533294879736 0 -1 0
428 143 2 0.527 -19.14897025104001 0.260743639610272 -4.015661625997601 0 0 1
422 141 2 0.527 -17.56654604288125 2.316073138239071 -4.998180093609109 0 0 1
52 18 1 -1.054 -14.178403063054176 3.938551640134504 -4.941986824854883 0 0 0
421 141 1 -1.054 -17.596824189006398 3.1643035342860983 -4.55561050993467 0 0 1
423 141 2 0.527 -17.163857970276517 3.012281206579585 -3.7155455512559348 0 0 1
66 22 2 0.527 -17.217868757987535 3.361532030178207 -0.88913995310776 0 0 1
53 18 2 0.527 -14.566126681327503 4.813585437334142 -4.95832910900382 0 0 0
64 22 1 -1.054 -17.207844289810993 4.251189076228272 -1.2422540171840106 0 0 1
338 113 2 0.527 -12.289853525686778 0.30912255066586525 -5.092194474341518 0 0 0
54 18 2 0.527 -13.671414543511828 3.8855291408118635 -5.75219106965652 0 0 0
724 242 1 -1.054 -16.326774285089854 0.723848632458095 -2.580824601099355 0 0 0
725 242 2 0.527 -17.21499548050147 0.6685821211878586 -2.9333697793701488 0 0 0
726 242 2 0.527 -16.34760079629578 0.1822530164495877 -1.7918249614150117 0 0 0
337 113 1 -1.054 -11.35290852158954 0.12083860608359664 -5.037759541679884 0 0 0
89 30 2 0.527 -20.226521002935772 0.6904088267605406 -1.7966587730067012 0 0 2
88 30 1 -1.054 -19.442827057157686 1.022634161876125 -2.2345279716257886 0 0 2
166 56 1 -1.054 -17.043334866737823 5.415482370191981 -6.502630568016654 0 1 0
264 88 2 0.527 -13.698676656113205 3.7425383297056456 -2.9544059439581236 0 0 0
168 56 2 0.527 -17.12262011689113 4.700087049336146 -5.871597583780151 0 1 0
167 56 2 0.527 -17.946679424788574 5.666488921278143 -6.695616516533225 0 1 0
262 88 1 -1.054 -13.382346604085013 3.6061903443262953 -2.0613078299940533 0 0 0
657 219 2 0.527 -14.497396254281702 1.9038903498960131 -5.239546176908681 0 0 0
430 144 1 -1.054 -17.19271085116315 6.775812654804231 -2.547353950104106 0 0 0
263 88 2 0.527 -13.33698317214464 4.485558931395017 -1.6858978730282361 0 0 0
1315 439 1 -1.054 -19.375988854945557 6.561324175275887 -6.976350571513564 1 0 0
432 144 2 0.527 -17.23159185896309 5.8550345944635005 -2.2886347526684094 0 0 0
326 109 2 0.527 -19.39217173277729 3.6132971046706395 -4.127166618871571 0 -1 1
325 109 1 -1.054 -20.190059169076275 3.285596493389397 -3.7121154806154166 0 -1 1
397 133 1 -1.054 -12.437371720842583 4.611089051120622 -7.479593930023443 0 -1 1
890 297 2 0.527 -20.1253313385199 7.459637723831694 -3.5088222881190285 1 -1 0
65 22 2 0.527 -16.678324512818925 4.750290013387776 -0.6203311103894205 0 0 1
656 219 2 0.527 -14.867106983486117 1.952891902946984 -6.706831760079577 0 0 0
655 219 1 -1.054 -14.449088142145818 1.3963612935364083 -6.049706725484871 0 0 0
684 228 2 0.527 -11.912222843424225 2.6142640664725896 -7.785227685328665 0 0 1
682 228 1 -1.054 -11.570879680156297 1.743225561753496 -7.582602413509431 0 0 1
449 150 2 0.527 -21.348131927295064 4.000095532696696 -8.08710105556725 0 0 0
398 133 2 0.527 -11.90976030026181 4.930365720955262 -6.747495415788961 0 -1 1
1302 434 2 0.527 -21.201941015113228 5.037934810864204 -0.8923572913551601 1 -1 0
290 97 2 0.527 -12.775875783077883 0.5524009722478702 -0.7969469468305039 0 0 -1
492 164 2 0.527 -21.673734337083484 7.485404429536882 -1.4115662489091028 0 -1 -1
490 164 1 -1.054 -20.762225128816358 7.686553170344045 -1.1995052413644522 0 -1 -1
233 78 2 0.527 -18.473454990528747 1.7387053444669824 -0.7210939376552634 0 0 -1
729 243 2 0.527 -17.274405633020336 4.694572105954778 -8.115012370452616 0 0 1
266 89 2 0.527 -18.787820448943688 5.3064868978467725 -0.4087152684395914 0 0 0
343 115 1 -1.054 -16.98640055743199 1.4023166194414838 -8.153101966846153 0 0 1
491 164 2 0.527 -20.41039582387242 6.867243657913637 -0.8513277157577015 0 -1 -1
520 174 1 -1.054 -12.325485765114685 5.673145202032018 -0.21591759465010263 0 0 1
291 97 2 0.527 -13.329575604208301 1.4825311795981087 -1.8553838502654525 0 0 -1
683 228 2 0.527 -11.66981381152389 1.661377337088874 -6.634028521628053 0 0 1
158 53 2 0.527 -11.559409466402244 7.781428980413562 -2.1540776167006728 0 -1 0
1235 412 2 0.527 -21.723370698027136 1.4725681379529618 -0.8115351878731785 1 0 0
355 119 1 -1.054 -18.180637654277014 -4.521388691863067 0.2663753074324866 0 0 0
203 68 2 0.527 -21.331780497186486 -0.7111968239029007 0.4513915627779337 0 0 0
754 252 1 -1.054 -15.798813736283956 -2.7982159278305856 0.8023799224966357 0 0 0
755 252 2 0.527 -15.217254838128131 -3.2091026364645687 0.16266070694039492 0 0 0
756 252 2 0.527 -16.599905112708846 -3.3211155400618955 0.7690810897890934 0 0 0
415 139 1 -1.054 -19.935327301890254 -4.291585210904734 7.859486648853187 0 0 -1
417 139 2 0.527 -19.547438172549615 -3.6747512791644086 7.238730313664771 0 0 -1
40 14 1 -1.054 -11.808372317741263 -6.7839359081094575 0.41802063691320335 0 0 0
5 2 2 0.527 -15.261306739670303 -1.3234738670658386 2.0270369923039304 0 0 0
51 17 2 0.527 -17.80273160014776 -5.758889633238519 8.00331701936342 0 0 -1
1442 481 2 0.527 -20.230068231565937 -4.139826642816852 4.312512382730196 1 0 -1
4 2 1 -1.054 -14.733163407148648 -0.9391945606635392 2.726803991426097 0 0 0
6 2 2 0.527 -13.903740625761486 -0.7139256682408872 2.3053882941390764 0 0 0
236 79 2 0.527 -11.795784532509627 -2.1936930442963964 7.711919273463508 0 0 -1
79 27 1 -1.054 -12.15169441755892 -0.05545122334694774 1.2516524888036535 0 1 0
670 224 1 -1.054 -11.578625737294423 -5.842614241067588 5.266296729056931 0 0 0
235 79 1 -1.054 -12.47923523761382 -2.7287195540339146 8.115555096050912 0 0 -1
1449 483 2 0.527 -21.666230002837345 -1.0082723935258553 6.9869525374612635 1 0 -1
218 73 2 0.527 -14.754346481242585 -6.988467274341666 0.2664666384279126 0 0 0
357 119 2 0.527 -18.591849320949176 -4.792474257714956 1.0871663415131927 0 0 0
50 17 2 0.527 -18.793659945869443 -6.89145964756406 8.16872640423291 0 0 -1
49 17 1 -1.054 -17.871384693730278 -6.713460566108234 7.984322744495964 0 0 -1
722 241 2 0.527 -15.340154869969815 -7.7013072834789345 2.976213682991389 0 0 -1
353 118 2 0.527 -12.838156267403123 -2.8904646620921612 5.012906972963112 0 0 0
503 168 2 0.527 -21.33856482043436 -6.1951939327061325 1.6846317685854757 0 0 0
354 118 2 0.527 -11.903883167458973 -1.7571921924503826 4.645698162929207 0 0 0
247 83 1 -1.054 -18.58292384152046 -5.979360125879573 2.6744464994946906 0 0 -1
248 83 2 0.527 -17.701373223807142 -6.328933275551076 2.8046311527684793 0 0 -1
1412 471 2 0.527 -20.3763798554557 -2.350389533345073 1.2355391360972146 1 0 0
1441 481 1 -1.054 -20.42291879073301 -3.204482791581163 4.377476258788571 1 0 -1
249 83 2 0.527 -19.014421110956427 -6.620633945666394 2.1097709988128326 0 0 -1
1183 395 1 -1.054 -17.403171978652033 -7.635454661670507 5.439796981227323 1 1 -1
250 84 1 -1.054 -13.875383546440197 -8.103651410097658 5.610595802833352 0 0 -1
252 84 2 0.527 -14.38820351974339 -7.75132205618946 6.3380300256590445 0 0 -1
251 84 2 0.527 -13.466623153053286 -7.335819816482309 5.211059614861053 0 0 -1
1184 395 2 0.527 -16.856766676626734 -6.9360601943706754 5.081232780200375 1 1 -1
1411 471 1 -1.054 -19.791167915403626 -1.7737427578493818 1.7267480740474443 1 0 0
316 106 1 -1.054 -19.866467924187656 -6.072279659301281 5.1573469798043945 0 0 -2
1413 471 2 0.527 -19.280271737499433 -1.3217818963622845 1.055185286916407 1 0 0
318 106 2 0.527 -19.478726808838474 -6.194866146963501 4.290796610747844 0 0 -2
731 244 2 0.527 -14.756780460750123 -2.597128223540067 4.310170216654997 0 0 1
34 12 1 -1.054 -16.37364906032353 -4.660515101644909 6.170172066443749 0 0 0
36 12 2 0.527 -17.078835489006995 -4.0300846075898695 6.023373797607684 0 0 0
35 12 2 0.527 -16.12269327011605 -4.5312193617009715 7.084821565892909 0 0 0
730 244 1 -1.054 -14.57572874778172 -3.4698976488988817 4.6591303557784105 0 0 1
703 235 1 -1.054 -13.676432846615624 -5.350130854987178 2.778995640192438 0 0 0
705 235 2 0.527 -14.143915306461729 -4.668367482408641 3.2616346612726694 0 0 0
704 235 2 0.527 -13.526494963491803 -4.971132307382904 1.912879101179131 0 0 0
732 244 2 0.527 -15.204643114710802 -3.5783266455061344 5.372565427266315 0 0 1
695 232 2 0.527 -18.3272572266718 -1.796816263221328 5.9304182601420194 0 -1 -1
1185 395 2 0.527 -17.580544974840393 -7.363666073832215 6.3403251368208 1 1 -1
352 118 1 -1.054 -11.911698709466936 -2.6820397520717796 4.892427898282028 0 0 0
696 232 2 0.527 -19.30842816379039 -2.879405987144632 5.53378651854055 0 -1 -1
694 232 1 -1.054 -18.55695586039611 -2.7100892103593903 6.102029844450678 0 -1 -1
317 106 2 0.527 -19.41285222476719 -6.704490399354794 5.714860660937452 0 0 -2
502 168 1 -1.054 -20.898394768438596 -6.9194721670311194 1.2397154330655535 0 0 0
228 76 2 0.527 -20.92428381079871 -6.587214224519234 7.923494487258624 0 1 -1
723 241 2 0.527 -15.242178728604763 -6.2848836969430675 2.4507048099682507 0 0 -1
721 241 1 -1.054 -15.874199113403295 -6.972887455204471 2.659225988567501 0 0 -1
333 111 2 0.527 -13.21477155782885 -8.0199035072991 0.8264361434500458 0 0 -1
1134 378 2 0.527 -12.716315448425975 -0.1927042018137346 6.094558911668363 0 0 0
672 224 2 0.527 -11.408772393282742 -5.000552055407924 4.843969281633896 0 0 0
1443 481 2 0.527 -20.15499932255435 -2.8448978816050667 3.5317829036795345 1 0 -1
41 14 2 0.527 -11.84399909054518 -5.909905622610513 0.029328521807826746 0 0 0
463 155 1 -1.054 -11.807101206493835 -5.598268777584751 8.067022071277636 0 0 -1
504 168 2 0.527 -21.019436679425354 -6.737708714465974 0.30773362813079785 0 0 0
671 224 2 0.527 -11.776824785379505 -5.6193153988722075 6.175766587549353 0 0 0
80 27 2 0.527 -11.737631210802094 -0.5208334241660832 1.9784611828792986 0 1 0
1448 483 2 0.527 -21.465453188096035 -2.245933094958077 6.138484271387652 1 0 -1
42 14 2 0.527 -11.037846576938355 -6.76296165715855 0.9855856769055098 0 0 0
189 63 2 0.527 -10.915943289507032 -3.6081878212808363 0.30830676743759433 0 0 0
1428 476 2 0.527 -21.71963083072461 -4.684850521785382 7.8314668967008405 1 0 -2
1473 491 2 0.527 -21.07481416604754 3.0536438758252356 0.6481401248107055 1 0 0
1471 491 1 -1.054 -21.275992157435947 3.3114870560767944 1.547764678299954 1 0 0
448 150 1 -1.054 -20.642786354160368 3.4994091326883954 7.841349353961975 0 0 -1
450 150 2 0.527 -19.85736876319808 4.026356772090445 7.98874298727039 0 0 -1
44 15 2 0.527 -21.67332303602472 5.530161784922413 5.682746318717401 0 0 -1
399 133 2 0.527 -12.203273018815928 5.182262989724547 8.127232500935902 0 -1 0
701 234 2 0.527 -16.63755720000611 6.281460415600094 1.49357843055423 0 0 0
97 33 1 -1.054 -11.487147108643775 0.0007702077509126326 4.610321547533649 0 0 0
126 42 2 0.527 -20.316399620994744 0.18922288296669798 2.871786392234508 0 -1 0
733 245 1 -1.054 -14.680463830646847 6.898293154629403 3.459390914096616 0 -1 -1
1328 443 2 0.527 -14.606744948710006 1.755865570762408 2.597804622886846 1 0 -1
348 116 2 0.527 -19.190853683951655 0.1538020337494821 6.579517426567044 0 -1 -1
1327 443 1 -1.054 -14.811974240753077 2.579006935923317 3.041199000945756 1 0 -1
241 81 1 -1.054 -12.030642439577324 2.725399925295177 4.740590108602566 0 0 0
734 245 2 0.527 -14.877533122670567 5.974764361618826 3.616035312952123 0 -1 -1
735 245 2 0.527 -14.537824958038538 7.2646401865048755 4.332158463478072 0 -1 -1
125 42 2 0.527 -20.915888656109477 1.4983042154785338 2.4038825027296102 0 -1 0
346 116 1 -1.054 -18.402436138854227 0.16526716785486073 6.036796636190411 0 -1 -1
98 33 2 0.527 -11.675495683762716 0.9207567303053938 4.795876188563414 0 0 0
276 92 2 0.527 -19.669115517997803 2.068331552963249 4.196687587044073 0 0 0
635 212 2 0.527 -11.695169849099921 5.802009790383854 5.375698076514917 0 -1 0
522 174 2 0.527 -12.77932509391454 6.469960892592777 0.05866172463696806 0 0 1
539 180 2 0.527 -13.80846545726391 4.890607774577196 5.621407023755884 0 0 0
569 190 2 0.527 -16.342063004466794 5.644936635643127 4.986562150744334 0 0 0
1472 491 2 0.527 -20.499972909947076 3.789977031887579 1.839519713770711 1 0 0
540 180 2 0.527 -14.765567775287124 3.718626251357673 5.67068580473272 0 0 0
45 15 2 0.527 -20.686631557361892 4.386305721837521 5.782981937915459 0 0 -1
1329 443 2 0.527 -14.774446835782731 2.3652558069242833 3.9734984062212693 1 0 -1
265 89 1 -1.054 -19.560836979615527 5.579998738660423 0.08516374995433473 0 0 0
234 78 2 0.527 -17.89526559260133 0.8742772305831785 0.3791219914440518 0 0 -1
345 115 2 0.527 -17.457774953575832 0.8043048804998811 7.6052655664217585 0 0 0
521 174 2 0.527 -12.37032728560184 5.09647321093612 0.5467867252401426 0 0 1
636 212 2 0.527 -12.699231258930721 6.716114915265557 6.0452404639896695 0 -1 0
634 212 1 -1.054 -12.163694387065595 5.937818330730975 6.199300167213449 0 -1 0
568 190 1 -1.054 -17.281285089049565 5.829199738947006 5.000312734527457 0 0 0
702 234 2 0.527 -15.556531716656837 6.740306390808071 0.5381421305101064 0 0 0
323 108 2 0.527 -18.44005239964212 6.148700641161181 3.518325059290577 0 -1 0
81 27 2 0.527 -11.666088166664958 0.7667891493258363 1.1854138541865051 0 1 0
242 81 2 0.527 -12.351710035978249 3.469775419117296 4.231571542028153 0 0 0
43 15 1 -1.054 -20.99307643462535 5.071823901878616 5.189318737380679 0 0 -1
700 234 1 -1.054 -16.30016807855155 6.141724875408224 0.6087497626276921 0 0 0
232 78 1 -1.054 -17.943816148078053 1.7806565839159418 0.07514925882193957 0 0 -1
123 41 2 0.527 -11.919896964263435 3.737936767862678 2.0910116626404758 0 0 0
342 114 2 0.527 -14.397065876395374 1.267155777016809 5.929902269248336 0 0 0
344 115 2 0.527 -17.321427544859272 2.269989259627865 7.959091714686066 0 0 0
275 92 2 0.527 -18.52911769650568 3.0430619137549435 4.402403936284468 0 0 0
347 116 2 0.527 -18.399661749606857 1.0344932472605404 5.635900788217757 0 -1 -1
274 92 1 -1.054 -19.215454930829207 2.5706100632216895 4.873583365098044 0 0 0
122 41 2 0.527 -13.384560089942783 3.955603238563839 2.406286506937448 0 0 0
124 42 1 -1.054 -20.93856718156775 0.8707007164760547 3.126295218405991 0 -1 0
728 243 2 0.527 -17.579753869144938 4.7875000758954 6.74350088000357 0 0 0
340 114 1 -1.054 -15.172014408108115 1.7977936754015946 5.7450844356324 0 0 0
322 108 1 -1.054 -19.157774991315403 6.494360802222822 2.9875959518806603 0 -1 0
324 108 2 0.527 -19.902557800893714 6.533785599285105 3.5876157543301854 0 -1 0
341 114 2 0.527 -15.831049306113453 1.4839334599286644 6.3643128993862135 0 0 0
331 111 1 -1.054 -13.868882361776187 7.620646101891353 0.8636961667141865 0 -1 -1
538 180 1 -1.054 -14.6540508297382 4.58934325028549 5.288984384774377 0 0 0
570 190 2 0.527 -17.348871547798883 6.70264496957822 5.386067193128078 0 0 0
1132 378 1 -1.054 -13.228387165750327 0.11595709250560127 6.842081786303677 0 0 0
240 80 2 0.527 -17.69796655114392 3.016640715506613 1.6122050213553134 0 0 0
727 243 1 -1.054 -17.725687183577154 4.237837266811763 7.51347099867176 0 0 0
332 111 2 0.527 -13.975832217894476 7.441588147648677 1.797923897887049 0 -1 -1
267 89 2 0.527 -19.218871411323317 5.843983043861467 0.9393602824496181 0 0 0
239 80 2 0.527 -16.95441319331661 2.9952058351447484 2.9307961607606536 0 0 0
121 41 1 -1.054 -12.547852898351 4.4159157311650326 2.3406026614100526 0 0 0
1133 378 2 0.527 -12.575412181063044 0.3283017604984302 7.509024554120122 0 0 0
238 80 1 -1.054 -17.832393229338084 3.0759415602146483 2.5580868221505106 0 0 0
243 81 2 0.527 -11.414294227601978 3.109183319002577 5.364373019707799 0 0 0
321 107 2 0.527 -11.150952212966212 5.573320832713353 3.3542415595609114 0 0 -1
56 19 2 0.527 -20.91636845671777 1.7701698090683848 7.35542720509752 0 0 0
55 19 1 -1.054 -21.03920394726448 0.8875200720701351 7.005970415848919 0 0 0
57 19 2 0.527 -21.699729601606524 0.9904258617941828 6.320846057268815 0 0 0
383 128 2 0.527 -4.278136942982947 -0.704457197029865 -1.2475187110582127 0 1 1
382 128 1 -1.054 -3.3688170924949112 -0.9689835146932397 -1.3869565167196427 0 1 1
281 94 2 0.527 -8.69007257957999 -4.758705242932594 -7.107180414918744 0 0 0
282 94 2 0.527 -9.257126812802861 -4.971542039927506 -5.7196768942133405 0 0 0
280 94 1 -1.054 -8.595021477706457 -4.472971118455508 -6.198554292964021 0 0 0
151 51 1 -1.054 -3.519032998288825 -6.283178566913436 -0.14737877782896724 0 0 0
128 43 2 0.527 -5.836011116726082 -2.5713095747454515 -5.754266535284244 0 0 0
714 238 2 0.527 -5.002516614686169 -3.5755249677223544 -1.0189934959834428 0 0 1
712 238 1 -1.054 -4.127727437049071 -3.6733529208012667 -0.6428890574351831 0 0 1
713 238 2 0.527 -4.063920173011432 -4.602602009021597 -0.4221972477009732 0 0 1
127 43 1 -1.054 -5.929891419622651 -1.709883019030089 -6.160973212792301 0 0 0
153 51 2 0.527 -3.946883814354834 -6.687234589231672 -0.9023374015013932 0 0 0
129 43 2 0.527 -6.862518804712439 -1.5084906309458201 -6.083981369950011 0 0 0
757 253 1 -1.054 -5.913624154826268 -4.6851252416019324 -4.605491287888574 0 0 0
759 253 2 0.527 -5.516794431963511 -5.42164203575566 -5.07062437705326 0 0 0
601 201 1 -1.054 -5.2482924633808885 -7.840787733638811 -1.9668901378550103 0 0 0
678 226 2 0.527 -6.332139698036363 -7.499502297311556 -7.415893536917018 0 1 1
106 36 1 -1.054 -7.798649678601915 -7.828143399268383 -2.584456663819801 0 0 0
107 36 2 0.527 -8.457277031988989 -7.412997029440574 -2.027551916583999 0 0 0
758 253 2 0.527 -6.807608127269546 -4.640636898288591 -4.94474546896691 0 0 0
603 201 2 0.527 -4.636719850598144 -7.75790172359664 -2.698592433516886 0 0 0
577 193 1 -1.054 -3.305297043072379 -5.080303940823381 -6.2955987995669584 0 0 1
384 128 2 0.527 -3.4149535242852416 -1.911577771822886 -1.5471654395671317 0 1 1
68 23 2 0.527 -0.0412467688587661 -4.418599808244068 -5.806619579441636 0 0 1
641 214 2 0.527 -9.532122089494624 -0.9927425323346526 -7.118781433631206 0 0 0
579 193 2 0.527 -3.4697404565159538 -5.074248768029091 -7.238573291947826 0 0 1
311 104 2 0.527 -3.084763957939426 -6.610841278363157 -5.04184803819067 0 0 0
310 104 1 -1.054 -3.106210931847457 -7.481070979837679 -4.643701847239232 0 0 0
67 23 1 -1.054 -0.7827947028163003 -3.8244845545927006 -5.922433870165598 0 0 1
602 201 2 0.527 -6.112958254604575 -7.734809862197761 -2.363628096684982 0 0 0
578 193 2 0.527 -2.4920895025383736 -4.5863878370870035 -6.190620558269884 0 0 1
1402 468 1 -1.054 -10.401536711588967 -5.044440234784496 -3.875917078223801 1 0 -1
200 67 2 0.527 -8.843252537328201 -2.5946366880225726 -5.509800309191931 0 0 0
1403 468 2 0.527 -10.443229178184335 -4.970788271402867 -2.9224409951597448 1 0 -1
746 249 2 0.527 -0.5153201076551994 -1.6688683431103248 -1.452796716232342 0 0 1
69 23 2 0.527 -0.6826942445118682 -3.17685781452541 -5.224695392692007 0 0 1
688 230 1 -1.054 -1.4842171496956311 -3.314039719931724 -1.408548096440537 0 0 0
690 230 2 0.527 -2.3366805765151497 -3.7301556477300766 -1.2803548376442597 0 0 0
689 230 2 0.527 -1.0972068546081921 -3.7826331963553894 -2.1480908129294303 0 0 0
765 255 2 0.527 -0.821544025968219 -0.01655736189430357 -4.421337882928861 0 1 1
985 329 1 -1.054 -0.8666291444389174 -5.6740400056148665 -3.3226265037184044 0 1 0
631 211 1 -1.054 -0.9216693853488032 -7.407677056158679 -0.05366678523277457 0 0 1
763 255 1 -1.054 -0.17265311681194362 -0.5729953590426717 -4.852147716038207 0 1 1
751 251 1 -1.054 -5.57682781895042 -7.721335806243445 -5.683010071224669 0 1 1
752 251 2 0.527 -4.660301207585096 -7.6392943825655095 -5.419325573500608 0 1 1
693 231 2 0.527 -1.0116403382301051 -7.877695246679906 -7.054430655316371 0 1 1
618 206 2 0.527 -8.454892359086047 -0.8724969059295136 -2.1078579173492598 0 0 0
640 214 1 -1.054 -9.682774254875293 -0.5694912342645635 -7.964028424249786 0 0 0
616 206 1 -1.054 -8.182284696837234 -0.9796072169785566 -3.0191711007723896 0 0 0
201 67 2 0.527 -8.531802734818568 -1.3575706479871643 -4.6945197013558655 0 0 0
199 67 1 -1.054 -8.640509668203302 -1.6630313543944961 -5.5951625124020925 0 0 0
617 206 2 0.527 -7.331537637525127 -0.5435746253779312 -3.0680140614199845 0 0 0
500 167 2 0.527 -5.907250850224587 -0.2759278839856263 -4.86143726610999 0 0 0
312 104 2 0.527 -2.5883060578574018 -8.028052076873657 -5.234350923327227 0 0 0
1074 358 2 0.527 -2.6272266606917434 -0.04901474059948363 -2.9980302641875065 0 0 0
744 248 2 0.527 -10.296099429888212 -7.735218921328888 -4.920771792984598 0 1 0
30 10 2 0.527 -0.6000526802302453 -4.295139394815287 -0.22052977592438427 0 0 0
986 329 2 0.527 -0.8617665670578134 -6.563442746780936 -2.9687641743939395 0 1 0
152 51 2 0.527 -2.721294674459582 -6.796744555908605 -0.02032087896530932 0 0 0
308 103 2 0.527 -6.049361074931769 -3.6557286954683255 -3.018275019649143 0 0 0
307 103 1 -1.054 -6.199297838327336 -3.142282278077543 -2.224441033583001 0 0 0
309 103 2 0.527 -6.560782824048697 -2.313721557247888 -2.5392345527043814 0 0 0
157 53 1 -1.054 -10.828039021290268 -8.11874991252586 -1.7189724786776175 0 0 0
987 329 2 0.527 -0.2698470344477286 -5.7099108820471685 -4.070185551770344 0 1 0
764 255 2 0.527 -0.13492732870426494 -0.24595387156490123 -5.750980296286684 0 1 1
633 211 2 0.527 -0.014241102113214055 -7.301876557097616 -0.33942844637051817 0 0 1
139 47 1 -1.054 -5.85028113122512 0.31652218823052003 -0.7169918040611565 0 0 1
141 47 2 0.527 -6.767588560698792 0.12018660751751575 -0.5265216220312725 0 0 1
717 239 2 0.527 -3.4204163720563443 0.7326329154072511 -5.1962906177708685 0 0 1
692 231 2 0.527 -0.5964606569548181 7.169932663387325 -6.381021109768364 0 0 1
753 251 2 0.527 -5.814865070736239 7.720261610781762 -5.4478148193589115 0 0 1
108 36 2 0.527 -8.253685032133102 7.76757907375608 -2.981463743087378 0 -1 0