LAMMPS data file via write_data, version 23 Jun 2022, timestep = 20000

1086 atoms
7 atom types
724 bonds
6 bond types
362 angles
9 angle types
0 dihedrals
14 dihedral types

-21.571952072013435 21.571952072013435 xlo xhi
-8.0894820270048 8.0894820270048 ylo yhi
-8.0894820270048 8.0894820270048 zlo zhi

Masses

1 15.9994
2 1.008
3 12.011
4 15.9994
5 1.008
6 15.9994
7 1.008

Pair Coeffs # lj/cut/tip4p/long

1 0.185199 3.1589
2 0 0
3 0.056 3.58141
4 0.1 2.93997
5 0.035 2.38761
6 0.192 3.14487
7 0.046 0.40001

Bond Coeffs # harmonic

1 0 0.9572
2 222.35 1.53
3 308.79 1.1111
4 359.76 1.1415
5 427.715 1.142
6 544.635 0.96

Angle Coeffs # charmm

1 0 104.52 0 0
2 50 109 0 0
3 26.5 110.1 22.53 2.179
4 45 111.5 0 0
5 13.0258 109.4 0 0
6 35.5 109 5.4 1.802
7 55 108.89 0 0
8 75.7 110.1 0 0
9 95 109.7 0 0

Dihedral Coeffs # charmm

1 0.57 1 0 0
2 0.29 2 0 0
3 0.43 3 0 0
4 0.59 1 180 0
5 1.16 2 0 0
6 0.12 1 0 0
7 0.42 2 0 0
8 0.29 3 0 0
9 2.87 1 180 0
10 0.03 2 0 0
11 0.23 3 0 0
12 1.36 1 180 0
13 0.16 2 0 0
14 1.01 3 0 0

Atoms # full

34 12 1 -1.054 -16.461131389741755 -5.1206299980295 -7.398532591518805 0 0 1
36 12 2 0.527 -15.516929651703904 -5.153901248189437 -7.552289216809837 0 0 1
35 12 2 0.527 -16.759169155611847 -6.019159254686814 -7.540243203823245 0 0 1
673 225 1 -1.054 -18.35742831611922 -5.685049545741566 -0.8364208548949854 0 0 0
675 225 2 0.527 -17.886415015101015 -6.415170071196981 -0.4347556391631189 0 0 0
674 225 2 0.527 -17.698183735113467 -4.997624402624304 -0.9318568567071166 0 0 0
721 241 1 -1.054 -14.48503676407734 -5.072010476239752 -3.8808650457526843 0 0 0
722 241 2 0.527 -15.40650090218029 -5.077023537101798 -3.621745133801392 0 0 0
723 241 2 0.527 -14.411424558165477 -4.338506496616079 -4.491452952395442 0 0 0
734 245 2 0.527 -13.030081199924675 -6.075279754059969 -7.829499651712752 0 0 0
105 35 2 0.527 -17.338542043592334 -0.5942697014741984 -3.9119891235004873 0 0 0
429 143 2 0.527 -14.537997408909295 -0.7544009992906799 -5.5486757422089426 0 0 1
711 237 2 0.527 -14.621560655754337 -3.2379555547097967 -1.564304528227444 0 0 1
733 245 1 -1.054 -13.672399712205499 -5.376158328733807 -7.707350599887189 0 0 0
735 245 2 0.527 -13.155026318342415 -4.621246212390826 -7.426820445414136 0 0 0
741 247 2 0.527 -13.026005933594586 -6.196981655069134 -4.03264752997284 0 0 0
710 237 2 0.527 -13.322246430199199 -2.5954248556752395 -2.0012412059569256 0 0 1
1328 443 2 0.527 -21.563202957303275 1.7608150162236562 3.56553031695387 1 0 -1
739 247 1 -1.054 -12.276447081445538 -6.777372598878088 -3.900086901508419 0 0 0
1422 474 2 0.527 -19.778552086725544 -6.3973030081563245 -4.9906731359071586 1 0 0
303 101 2 0.527 -16.750743155935307 -4.925983012520709 -5.329189802428365 0 0 0
301 101 1 -1.054 -17.288014910397642 -4.7735337500521995 -4.5517819817931535 0 0 0
302 101 2 0.527 -17.09205038997039 -3.8717000457845714 -4.29769888463679 0 0 0
709 237 1 -1.054 -14.2691782602349 -2.5552745870618505 -2.135302165453634 0 0 1
1420 474 1 -1.054 -19.8866687866367 -5.479630938133685 -5.240579491231749 1 0 0
356 119 2 0.527 -15.073249230475529 -2.529987327533691 -3.7065924502301053 0 0 0
42 14 2 0.527 -17.440637328287444 -3.693589505228789 -7.5007242220485235 0 0 1
250 84 1 -1.054 -13.688631487601196 -6.310609795190279 -0.29371571137245134 0 0 0
357 119 2 0.527 -16.214142021234682 -2.0354221639093026 -4.570159454873777 0 0 0
355 119 1 -1.054 -15.374956900727653 -2.493773045782663 -4.6142965271725025 0 0 0
1285 429 1 -1.054 -20.442930331932445 -2.6660591761164785 -5.022896146856517 1 0 -1
189 63 2 0.527 -12.120408982121159 1.5725951492532193 2.5303981119874983 0 0 0
319 107 1 -1.054 -11.533012581291413 -3.6642007294884325 -6.471954703480665 0 1 0
320 107 2 0.527 -11.554008440051605 -2.7244745112995163 -6.652893731635548 0 1 0
1287 429 2 0.527 -20.271805512018346 -3.607854941542268 -5.021612893759579 1 0 -1
1235 412 2 0.527 -20.38711984855107 -0.19803865256294717 -2.888645396520438 1 0 0
172 58 1 -1.054 -19.939760821380222 -2.7124941283187525 6.954911809945914 0 0 0
174 58 2 0.527 -19.574346899036783 -3.093572310594862 6.1564655330599045 0 0 0
173 58 2 0.527 -19.290321281403706 -2.9043786529777433 7.631427090674006 0 0 0
103 35 1 -1.054 -17.809387307007665 -1.226822037132024 -4.454618997822138 0 0 0
104 35 2 0.527 -17.99674923260184 -0.7545880965961809 -5.265886736310101 0 0 0
247 83 1 -1.054 -17.891456056565914 -2.028649897648611 -1.1178152586436152 0 0 -1
251 84 2 0.527 -13.68378097470455 -7.155533807326846 0.15611252496900008 0 0 0
424 142 1 -1.054 -10.789719608694085 -7.237981305644847 2.8590615394641503 0 0 0
719 240 2 0.527 -11.710182691501533 4.073036441120898 2.0619884304671388 0 -1 1
1421 474 2 0.527 -19.093824503812755 -5.048868574670168 -4.921039659125631 1 0 0
248 83 2 0.527 -18.616738837146293 -1.8319365139379817 -1.7107177125819648 0 0 -1
1444 482 1 -1.054 -21.396365193991677 7.815689162334941 0.09002758699099367 1 0 0
1286 429 2 0.527 -19.574941007507785 -2.2643710482199495 -4.984091241521131 1 0 -1
316 106 1 -1.054 -19.617863813566615 -3.0582046778416547 3.564936617610412 0 0 -2
596 199 2 0.527 -14.215628575187353 -7.773584467603818 -3.626976427229282 0 1 0
1317 439 2 0.527 -18.767756520500136 7.981810786321427 -6.173351116776188 1 0 0
539 180 2 0.527 -11.001531031841713 5.362149327667771 -7.484380423109002 0 0 1
341 114 2 0.527 -18.96863527056949 -1.0994771256200329 6.958063798594106 0 0 0
1234 412 1 -1.054 -20.193480256931434 -0.3434331044251717 -1.962562981387971 1 0 0
40 14 1 -1.054 -18.023010126387113 -2.9348139081938474 -7.463747839605339 0 0 1
252 84 2 0.527 -14.604486536268677 -6.1726980170252626 -0.5354890446168392 0 0 0
491 164 2 0.527 -21.474268350653997 -5.831220031101552 -6.254200999654451 0 0 0
219 73 2 0.527 -16.503881619737395 -3.4113156340996076 -0.6670748119962768 0 0 0
308 103 2 0.527 -12.370440277899368 -4.554159063987862 -0.757776151705996 0 0 0
249 83 2 0.527 -18.06131224904805 -1.491088437017103 -0.3442255771233702 0 0 -1
57 19 2 0.527 -19.104280637067795 3.466625280431982 6.088880339029451 0 0 0
427 143 1 -1.054 -14.784568402048382 0.12072387372242055 -5.8480476552828495 0 0 1
199 67 1 -1.054 -12.059162477117388 -0.329434464467222 2.1689485102308037 0 0 0
428 143 2 0.527 -15.363218272353215 -0.03515032772746629 -6.594460419852968 0 0 1
323 108 2 0.527 -19.24510189976039 7.5399777024863415 2.730087501649262 0 -1 0
233 78 2 0.527 -18.436742517674165 1.8195905143943705 1.222900079704285 0 0 -1
273 91 2 0.527 -15.577289449811477 -0.701777230598867 -2.216782039346187 0 0 0
272 91 2 0.527 -16.775846675953424 0.07604318060152693 -1.7163496017526834 0 0 0
200 67 2 0.527 -12.16607315279287 -0.5480464596131673 3.0947154801667978 0 0 0
652 218 1 -1.054 -19.96355130865409 8.056420814506977 -4.512584106779702 0 -1 0
704 235 2 0.527 -15.321679164313379 6.470741651929634 -7.912998711523969 0 -1 1
93 31 2 0.527 -13.795319323202033 2.679777457050738 2.9602653588742918 0 0 0
201 67 2 0.527 -11.172361195303928 -0.6192297016362192 1.954782539893353 0 0 0
521 174 2 0.527 -15.094356207656492 5.11231686445654 1.847385168116256 0 0 1
225 75 2 0.527 -16.907641870517434 7.646519262493859 -2.9837260907446614 0 -1 0
347 116 2 0.527 -15.964474154000438 7.099597022319129 -5.2917440780463005 0 -1 0
346 116 1 -1.054 -16.36795550028091 6.28550550417822 -5.592945046207237 0 -1 0
223 75 1 -1.054 -17.67615301075397 7.364670233823272 -2.487523867210733 0 -1 0
348 116 2 0.527 -16.47042304773567 5.7604268779562116 -4.799183941646417 0 -1 0
597 199 2 0.527 -14.759809625283268 7.32701106961944 -2.714307012114719 0 0 0
65 22 2 0.527 -19.139440875161597 2.012430753104372 -4.405764097302185 0 0 1
595 199 1 -1.054 -14.986712441935502 7.858227474075639 -3.477582388135297 0 0 0
271 91 1 -1.054 -16.159507412720597 0.022372871345615053 -2.4467673544307766 0 0 0
449 150 2 0.527 -19.55199615854786 2.947485145151745 -7.748176006450585 0 0 0
542 181 2 0.527 -13.80935674959038 5.230324262136543 -1.6004618188823736 0 0 0
450 150 2 0.527 -20.893026352721794 3.5330540068319802 -7.359942423056345 0 0 0
448 150 1 -1.054 -20.28657022191112 2.8237202820085923 -7.147053548303758 0 0 0
570 190 2 0.527 -15.466411521427156 3.035141057844106 6.908919000653865 0 0 0
569 190 2 0.527 -14.928913887953566 3.315625097936202 -7.8828168890949595 0 0 1
568 190 1 -1.054 -15.436831052288884 2.676752831106313 7.796019442339153 0 0 0
754 252 1 -1.054 -14.934542440992438 2.402178410988986 -2.781337519020357 0 0 0
755 252 2 0.527 -14.144355576790053 2.2848991107296754 -3.3087036031060792 0 0 0
756 252 2 0.527 -15.387060482213178 1.5604893655171637 -2.8365888973649733 0 0 0
727 243 1 -1.054 -14.23315539305078 4.62832255273414 -6.809082462176484 0 0 1
728 243 2 0.527 -14.771597850652796 5.237455902549803 -6.303809197290361 0 0 1
654 218 2 0.527 -19.346358297624906 8.015467920973522 -3.7820634073929487 0 -1 0
729 243 2 0.527 -13.339259852244588 4.954154322929236 -6.703966697017437 0 0 1
700 234 1 -1.054 -17.619191534731414 5.604397496459216 -0.2835847224801178 0 0 0
702 234 2 0.527 -17.793092515197774 6.456480114958202 -0.6835575269163767 0 0 0
543 181 2 0.527 -15.195951633290672 5.487112238104682 -1.0496515511020874 0 0 0
736 246 1 -1.054 -12.88112242065067 2.3159667863574374 -4.962514461230304 0 0 1
737 246 2 0.527 -13.399335657082354 2.9801609902048103 -5.41700956020895 0 0 1
738 246 2 0.527 -13.179367835289911 1.4847260452779931 -5.331775246116674 0 0 1
541 181 1 -1.054 -14.60530912074207 5.737521684470673 -1.760074714352248 0 0 0
415 139 1 -1.054 -16.58921048010481 4.815441672710131 -3.289519257094806 0 0 0
416 139 2 0.527 -16.561629605583796 3.8612975025369973 -3.21801718464452 0 0 0
417 139 2 0.527 -15.766237226960069 5.109273276153878 -2.8988245105592636 0 0 0
51 17 2 0.527 -19.780017041618628 0.8353188136256104 -6.520961100393849 0 0 0
421 141 1 -1.054 -12.415651548927702 4.173895785732832 -1.2746463357404583 0 0 1
422 141 2 0.527 -11.920438679722558 4.062807609650649 -2.0862425883401805 0 0 1
423 141 2 0.527 -12.819115758155446 3.3195972609384423 -1.1208438116876804 0 0 1
224 75 2 0.527 -17.608323977626 6.410209614313267 -2.461653660004984 0 -1 0
318 106 2 0.527 -20.131714164882517 -2.5348014577458438 2.949898929959083 0 0 -2
701 234 2 0.527 -18.267569093843548 5.018853019784279 -0.6747482417982109 0 0 0
352 118 1 -1.054 -11.568258461704243 3.2147285670654995 6.83910804670108 0 0 0
636 212 2 0.527 -10.862304175601249 -7.797694831155126 -5.1949702574389685 0 0 1
724 242 1 -1.054 -13.377061841882169 7.605804289661986 1.0826817302915934 0 0 0
1236 412 2 0.527 -21.047259957129228 -0.31134123912414235 -1.5309434973234808 1 0 0
725 242 2 0.527 -12.831412541878723 7.501002517558945 0.3032285141305753 0 0 0
726 242 2 0.527 -13.968295413677222 6.853219534581914 1.0647080377096572 0 0 0
50 17 2 0.527 -20.516980372786293 -0.033885311467971135 -5.524293643067241 0 0 0
49 17 1 -1.054 -19.642471798353252 0.14929796837814635 -5.867722084295319 0 0 0
66 22 2 0.527 -20.01519364492587 3.247199513466125 -4.38630929993978 0 0 1
92 31 2 0.527 -14.427431924559144 2.2940002298311093 1.639815615775813 0 0 0
538 180 1 -1.054 -11.295406361186961 4.851888244086677 -6.729704614980122 0 0 1
53 18 2 0.527 -11.024134193862526 2.9052281931633566 -4.157858256643227 0 0 0
743 248 2 0.527 -12.009926804088927 -7.669810700387398 -2.0176986748785017 0 1 0
694 232 1 -1.054 -18.16895916747504 2.311970221238255 7.313980179532509 0 -1 -1
695 232 2 0.527 -17.225196145251857 2.350225674480251 7.469263609892856 0 -1 -1
425 142 2 0.527 -11.272021338196264 -6.443073166720286 2.63153105412429 0 0 0
520 174 1 -1.054 -15.317228130607454 5.977939975451921 1.5049102885657835 0 0 1
742 248 1 -1.054 -11.616879443729628 7.966608361212602 -1.3340154687644263 0 0 0
327 109 2 0.527 -18.053905975348773 6.145633921719037 4.671935547170225 0 -1 0
64 22 1 -1.054 -19.370931355859923 2.7678316122282283 -3.865351688224437 0 0 1
653 218 2 0.527 -20.386713789461812 7.19783329502104 -4.517665859087696 0 -1 0
43 15 1 -1.054 -20.520774984819003 -7.570538781494512 7.191460896313739 0 1 -1
1315 439 1 -1.054 -18.358439650088382 8.009112450065425 -7.03820880058017 1 0 0
55 19 1 -1.054 -19.719452850599534 3.835144877232043 5.454828898810481 0 0 0
1273 425 1 -1.054 -20.247030922821246 -4.348844854804176 0.5781699294624314 1 0 0
340 114 1 -1.054 -18.490965421564766 -0.33383002951700824 6.638877131014096 0 0 0
342 114 2 0.527 -18.06638353972684 -0.6337551830606785 5.8351116449845275 0 0 0
317 106 2 0.527 -18.747475334812705 -2.660126903293043 3.550026561447014 0 0 -2
1412 471 2 0.527 -20.39161460318604 -2.178599502488198 1.2531066406901648 1 0 0
232 78 1 -1.054 -18.247087921163246 1.8733484292284057 2.1595995001271167 0 0 -1
15 5 2 0.527 -13.486404078456621 -1.1643508002397578 1.3225362004905872 0 0 0
45 15 2 0.527 -19.7471751181458 -8.020369476957201 7.531255534309972 0 1 -1
670 224 1 -1.054 -14.197655171372542 -1.825204330868667 6.895824318613231 0 0 0
41 14 2 0.527 -17.43652058611014 -2.187710767761401 -7.344871637551958 0 0 1
430 144 1 -1.054 -16.395227985165622 -6.890115305314613 1.5348833833230717 0 1 0
432 144 2 0.527 -17.009310756494596 -7.238892959367218 2.181042071643523 0 1 0
1382 461 2 0.527 -17.367106244299492 -1.4035904672842774 3.4213834551135385 1 0 -1
1381 461 1 -1.054 -17.432970586635882 -1.50304773556023 4.371138877670743 1 0 -1
1383 461 2 0.527 -17.044076661663166 -2.359153753373268 4.550335175813489 1 0 -1
217 73 1 -1.054 -15.960108238434676 -4.197848404942517 -0.6230049648472811 0 0 0
732 244 2 0.527 -13.604379688368939 -0.2804165221952646 4.529515258515332 0 0 1
530 177 2 0.527 -10.844075440823895 -0.5036431383847466 -7.282261150830275 0 0 1
529 177 1 -1.054 -11.712331155316912 -0.8702851482273086 -7.1150166803045 0 0 1
1413 471 2 0.527 -20.434284347140675 -0.6941334750392061 1.5472447571328534 1 0 0
672 224 2 0.527 -13.681453949227325 -1.3481096660090355 6.246069362524196 0 0 0
502 168 1 -1.054 -18.83983163603157 -5.756393884974333 5.073177536908595 0 0 0
503 168 2 0.527 -19.32834567718927 -6.539810962547377 5.325914045693414 0 0 0
671 224 2 0.527 -13.549357151653737 -2.300925993646315 7.415115176329751 0 0 0
218 73 2 0.527 -15.562922876077716 -4.166556610853997 0.24735650158144296 0 0 0
504 168 2 0.527 -19.371137684155133 -5.353393083950365 4.386468637409827 0 0 0
309 103 2 0.527 -12.178033807910479 -3.735667511820897 0.501202547046125 0 0 0
307 103 1 -1.054 -12.075576848059598 -3.697169273634601 -0.4497362223800767 0 0 0
1471 491 1 -1.054 -21.431171048121083 5.48834603426072 -3.814678139904 1 0 0
88 30 1 -1.054 -16.18905702018231 5.709399108472063 4.930600213663231 0 0 1
5 2 2 0.527 -12.555119879759555 -5.491877316326043 1.312536853626625 0 0 0
4 2 1 -1.054 -12.499034280042714 -4.917019343557023 2.075856997018862 0 0 0
6 2 2 0.527 -13.327435371562261 -5.048873429036077 2.536976739724766 0 0 0
158 53 2 0.527 -15.852378104850263 -5.227309954267888 2.124681841055068 0 0 0
331 111 1 -1.054 -14.113461986201301 -5.2465428198486235 5.524568355356221 0 0 -1
333 111 2 0.527 -14.072998397592919 -6.132780840130823 5.16511114513618 0 0 -1
335 112 2 0.527 -17.30164234463724 -4.704468413632744 4.925127668793328 0 0 -1
133 45 1 -1.054 -17.06236330537219 -1.050221016096069 1.569006144000328 0 0 -1
171 57 2 0.527 -12.170564154086344 -3.9494103121055604 5.987821209800279 0 0 -1
1411 471 1 -1.054 -20.947199287323066 -1.4977985777145157 1.6327130675552333 1 0 0
288 96 2 0.527 -20.306328207504944 -6.723296789792603 2.6988190854124774 0 0 -1
336 112 2 0.527 -15.893776103224639 -4.336183049725434 5.342567974514189 0 0 -1
334 112 1 -1.054 -16.689044806300465 -3.969596980486461 4.956009985584018 0 0 -1
169 57 1 -1.054 -11.564505910826869 -3.2148515118000294 6.084678607683488 0 0 -1
159 53 2 0.527 -15.660325409482915 -4.194790585184125 3.2150930334096444 0 0 0
157 53 1 -1.054 -15.399915101974416 -4.406374416225975 2.318609083762288 0 0 0
286 96 1 -1.054 -20.7383591979554 -5.873951746126711 2.7895232719865337 0 0 -1
135 45 2 0.527 -16.106934248524983 -1.086317283497082 1.6150227280318976 0 0 -1
134 45 2 0.527 -17.255826041801154 -0.15294773226161062 1.297459908144928 0 0 -1
602 201 2 0.527 -11.175684951390041 -2.7429309294580566 4.004912185468321 0 0 0
1258 420 1 -1.054 -16.24993592487131 -0.7288033050509357 -7.866528714689957 1 0 1
1259 420 2 0.527 -16.89972632371537 -0.3187289171852692 7.741579689945059 1 0 0
1260 420 2 0.527 -15.675097895841933 -1.2084522721502333 7.715975868559292 1 0 0
14 5 2 0.527 -14.13111682260282 -2.5287636937916425 1.443777867679989 0 0 0
13 5 1 -1.054 -14.319956826886802 -1.6206285797076125 1.2073589192880991 0 0 0
431 144 2 0.527 -15.802944613510236 -7.618740294205587 1.3489523684880194 0 1 0
1316 439 2 0.527 -17.658457916370153 7.357763138762937 -6.9931059272145655 1 0 0
1327 443 1 -1.054 -21.017786627333237 1.8889583710316842 2.7894087445775764 1 0 -1
263 88 2 0.527 -14.094153232764963 -7.997016970247647 3.14637038176455 0 1 0
90 30 2 0.527 -15.325490121645373 5.9364964381766185 4.585718822131549 0 0 1
264 88 2 0.527 -15.268661124313411 -7.903482716332625 4.097032912458381 0 1 0
332 111 2 0.527 -14.132518929909423 -5.372967834511874 6.473208330457112 0 0 -1
744 248 2 0.527 -10.789641954622722 7.667163588765279 -1.7112104387309222 0 0 0
262 88 1 -1.054 -14.424160351886172 -7.50052420302358 3.895272759758047 0 1 0
44 15 2 0.527 -20.69251259319908 -6.875363575351277 7.826679189752221 0 1 -1
1274 425 2 0.527 -19.527187786735436 -4.829987020878994 0.1700125032172739 1 0 0
1275 425 2 0.527 -20.463605343615917 -4.858016464081395 1.3592614556525682 1 0 0
126 42 2 0.527 -19.401472302507383 3.4407884776667093 -2.264283732282558 0 -1 0
239 80 2 0.527 -17.265784682203783 2.9011311970317895 3.355162938361609 0 0 0
603 201 2 0.527 -11.192431334936972 -3.608150996145149 2.7627002591157854 0 0 0
703 235 1 -1.054 -15.798482178200235 7.118040778277617 7.746420724138918 0 -1 0
188 63 2 0.527 -11.241337845918377 2.181476321305153 3.602066701816643 0 0 0
705 235 2 0.527 -16.344261681950343 6.597685901053493 7.156828222170102 0 -1 0
522 174 2 0.527 -16.242760451403086 5.911986157297388 1.2697406397813324 0 0 1
740 247 2 0.527 -11.628705782278264 -6.234102558413281 -3.451140069243009 0 0 0
324 108 2 0.527 -19.768849034283978 7.93294678265009 1.365081347266436 0 -1 0
274 92 1 -1.054 -18.2597342610392 1.1321579098030803 -0.7006406965138909 0 0 0
238 80 1 -1.054 -16.56377335048093 3.1781270133487887 3.943990264004917 0 0 0
731 244 2 0.527 -12.666037250227923 0.0009856373293803955 5.6837694596426065 0 0 1
730 244 1 -1.054 -12.703475860030917 -0.4162545124493846 4.823087541410741 0 0 1
124 42 1 -1.054 -19.452261212396525 3.5934918960190423 -1.3206915404227537 0 -1 0
337 113 1 -1.054 -14.48409783862564 1.6005247894640764 0.07075101428220876 0 0 0
339 113 2 0.527 -14.651815619966069 0.6846291158016893 0.29272002860547275 0 0 0
343 115 1 -1.054 -13.090331357197158 1.0326830555130968 7.2233325846543455 0 0 0
100 34 1 -1.054 -11.203434385733374 6.529614439470581 4.105298665198381 0 0 0
1404 468 2 0.527 -15.891814191070713 1.2214830099904237 4.254642472045875 1 0 -1
240 80 2 0.527 -15.760334765451427 3.0342226057222064 3.4439485254777935 0 0 0
344 115 2 0.527 -13.970372439930962 1.383052313932934 7.361295737235743 0 0 0
122 41 2 0.527 -11.0911671325076 6.376837721463845 6.157999633808803 0 0 0
696 232 2 0.527 -18.324874250529714 1.4206269826872244 7.00178912983036 0 -1 -1
89 30 2 0.527 -16.414845471046764 4.889413218519785 4.491386663089633 0 0 1
91 31 1 -1.054 -14.54441099680453 2.8698327756009387 2.3954599025497867 0 0 0
1403 468 2 0.527 -15.900729652766543 -0.2864919076191397 4.120820068217775 1 0 -1
1402 468 1 -1.054 -15.331669950516234 0.45035202744476344 4.3432983787255335 1 0 -1
276 92 2 0.527 -18.97481542712958 0.6512883743304982 -1.117399292291113 0 0 0
101 34 2 0.527 -11.468593932235427 6.010204668610763 3.346240930580157 0 0 0
345 115 2 0.527 -12.542813753204815 1.8059281014566348 7.0870143005238795 0 0 0
353 118 2 0.527 -11.870089586593272 4.04126250722342 7.215941467315412 0 0 0
116 39 2 0.527 -21.069474363556303 -6.310813914176707 -2.1347081595147213 0 1 0
121 41 1 -1.054 -10.845807794348678 6.3926098410106995 7.0831020327913095 0 0 0
718 240 1 -1.054 -11.796512129108585 4.944999773055752 1.6766414292190515 0 -1 1
322 108 1 -1.054 -19.150148570280344 -7.9778136238283 2.044449579614387 0 0 0
102 34 2 0.527 -11.391640174666767 7.434091564155201 3.854769466440871 0 0 0
325 109 1 -1.054 -18.961578979066495 6.342062390875549 4.439964776851916 0 -1 0
338 113 2 0.527 -14.863556720175826 1.7094966090018122 -0.8012585821295888 0 0 0
56 19 2 0.527 -20.583597886698826 3.6360477596459937 5.815214643292153 0 0 0
125 42 2 0.527 -20.343662613795225 3.911158288082758 -1.1766230125788786 0 -1 0
275 92 2 0.527 -18.480728374000424 2.053943057087828 -0.8338251700510719 0 0 0
234 78 2 0.527 -19.104997298061612 1.824536929601969 2.5813507740244255 0 0 -1
326 109 2 0.527 -19.472939917532223 5.656766668621673 4.870249259603375 0 -1 0
531 177 2 0.527 -12.306123327425194 -0.3270779011476588 -7.633284551667233 0 0 1
182 61 2 0.527 -10.853151003039192 -0.21266290504491359 -4.7178488157232845 0 0 1
187 63 1 -1.054 -11.752868950231216 2.4059780010009018 2.824764327506786 0 0 0
720 240 2 0.527 -11.744735187206947 4.79631925179158 0.7324602849974191 0 -1 1
321 107 2 0.527 -10.834794705173808 -3.7685947259829726 -5.825535781867243 0 1 0
1329 443 2 0.527 -21.457284103635534 2.583866850433834 2.2992986518494885 1 0 -1
714 238 2 0.527 -7.032890239969948 8.060994333566631 -2.988504315543519 0 -1 1
687 229 2 0.527 -1.5802752854718136 1.9009749632767594 -3.945034040750155 0 0 1
686 229 2 0.527 -1.6352043908040486 1.2078834659846152 -2.6001981260670055 0 0 1
685 229 1 -1.054 -2.159959374864524 1.7367132587586802 -3.2012271209146395 0 0 1
765 255 2 0.527 -1.2977480077945707 -2.391833190823246 -2.9418982491088865 0 1 1
763 255 1 -1.054 -0.755850899433284 -1.7699251822699624 -3.427535073382841 0 1 1
383 128 2 0.527 -3.3141506571117816 -4.051561080663849 -1.9478964209088572 0 1 1
382 128 1 -1.054 -2.9687124790664825 -3.2125556564878233 -2.25286748935377 0 1 1
140 47 2 0.527 -6.87710234172901 -4.090351665296108 -2.1008401214624586 0 0 1
384 128 2 0.527 -3.702991974042927 -2.6047061254523918 -2.1655902192874024 0 1 1
690 230 2 0.527 -2.6741213991967676 -4.539492417625333 -6.4766192676965915 0 0 0
31 11 1 -1.054 -7.108635609745717 -0.914012694899232 -2.0035074718282777 0 0 0
32 11 2 0.527 -6.893494636438827 -0.9252148459061411 -1.0708484414091108 0 0 0
139 47 1 -1.054 -6.5517530830902295 -3.500440819579148 -2.780853924663794 0 0 1
689 230 2 0.527 -3.1338303525769433 -5.438746273797336 -5.348795323219136 0 0 0
688 230 1 -1.054 -2.352468359646963 -5.169565930942735 -5.831785444855917 0 0 0
141 47 2 0.527 -6.845849289269033 -2.6319792185642017 -2.505995845391989 0 0 1
471 157 2 0.527 -4.649103537289832 -4.906265474860302 -4.05813995452082 0 0 1
467 156 2 0.527 -7.935137248141331 -1.9628892387804342 -7.419939382772623 0 1 1
354 118 2 0.527 -10.64542525264715 3.3667167766062214 6.635285466392899 0 0 0
33 11 2 0.527 -7.828004189209269 -0.28674257118799673 -2.076343864871932 0 0 0
466 156 1 -1.054 -8.443864266927267 -2.773355495170261 -7.444570532102637 0 1 1
465 155 2 0.527 -9.431726322421287 -2.3715388240876525 -4.3339419163768635 0 0 0
212 71 2 0.527 -1.3389595994958157 -6.674924084852637 -6.111951378848362 0 0 0
469 157 1 -1.054 -4.7699631244643435 -5.633216573356711 -4.669040664255369 0 0 1
470 157 2 0.527 -5.463501074334367 -5.338068351879436 -5.259089405935082 0 0 1
468 156 2 0.527 -8.757083750088238 -2.887464178224226 -6.547275633073682 0 1 1
712 238 1 -1.054 -6.7548012025171875 -7.884725069423878 -2.102768452516747 0 0 1
661 221 1 -1.054 -3.9006167297425733 -5.463654002448283 -0.8199482691101476 0 0 0
662 221 2 0.527 -3.107154620113608 -5.497294055684245 -0.28557908302277735 0 0 0
713 238 2 0.527 -6.831493735021612 -6.931132823498746 -2.0704442099655944 0 0 1
663 221 2 0.527 -3.9478996010682863 -6.325443795946964 -1.2338889455114685 0 0 0
281 94 2 0.527 -6.962264171947686 -4.143772701224131 -7.365311613401681 0 0 0
282 94 2 0.527 -7.128241960550302 -5.153082219021771 -6.249192469751651 0 0 0
280 94 1 -1.054 -6.473785239035495 -4.60704710435318 -6.684848822033597 0 0 0
1009 337 1 -1.054 -7.992259664187349 -6.828572516579929 -4.681196845230878 0 1 0
453 151 2 0.527 -5.593190367066379 -1.5818149677093603 -5.557429024332681 0 0 0
451 151 1 -1.054 -6.384458228717834 -1.2623100363190813 -5.991106634394702 0 0 0
452 151 2 0.527 -6.513919118879672 -0.3826583284466034 -5.636540479498465 0 0 0
151 51 1 -1.054 -7.637575829572942 -5.247949805394682 -1.1008512981159004 0 0 0
656 219 2 0.527 -9.853463550116142 5.146192183239716 -3.9021130391923338 0 0 0
940 314 1 -1.054 -1.6492608506422677 -0.7430429590175702 7.237848291762138 0 0 -1
745 249 1 -1.054 -0.23650951170938583 -3.592355172276714 -5.3095021176566535 0 0 1
677 226 2 0.527 -9.94350279762409 -4.35590564520912 -3.513497511223206 0 1 1
761 254 2 0.527 -3.413313536820965 -3.1261285238586396 7.868186372127051 0 0 0
678 226 2 0.527 -9.151180878268173 -5.625150229587359 -3.282801186412941 0 1 1
747 249 2 0.527 -0.9186477490514982 -4.263187597366963 -5.278895529381711 0 0 1
464 155 2 0.527 -8.15400846749296 -3.1820287450904416 -4.283730791912939 0 0 0
676 226 1 -1.054 -9.918622245241735 -5.144841147348144 -2.9719939015985535 0 1 1
236 79 2 0.527 -9.208657039842947 -1.8049943507434492 -0.575372258462755 0 0 0
463 155 1 -1.054 -9.058854231960384 -3.2137968279378075 -4.594390943213324 0 0 0
237 79 2 0.527 -10.606402880319372 -2.26843189146639 -0.2239338075567261 0 0 0
586 196 1 -1.054 -1.774168215136939 6.267505714596426 7.234921013571318 0 0 0
1088 363 2 0.527 -3.4278518780329215 0.353430682139928 -4.4503443057182 0 0 0
632 211 2 0.527 -3.8463293172031428 7.638978800877309 -0.9473046383967425 0 -1 1
633 211 2 0.527 -4.8818393084228795 7.884589932834054 -2.0240457971143373 0 -1 1
631 211 1 -1.054 -3.9367090632663135 7.844206964947677 -1.8778840130613936 0 -1 1
513 171 2 0.527 -0.8716926011312296 -5.480442435957919 -0.42451935115558914 0 1 1
601 201 1 -1.054 -10.646109943876581 -2.988528916199253 3.246297088593794 0 0 0
511 171 1 -1.054 -1.4180456510848245 -5.8510631970705465 0.26859152652085605 0 1 1
1089 363 2 0.527 -3.117078950196266 -1.1256976216647399 -4.363302032128079 0 0 0
1087 363 1 -1.054 -3.6905336080610525 -0.49722562387481073 -4.8019786709029475 0 0 0
746 249 2 0.527 -0.5370154746803593 -2.9166119379893685 -4.701774332658278 0 0 1
480 160 2 0.527 -3.57824728329431 5.782814675186893 1.2487846360218526 0 0 0
762 254 2 0.527 -4.41483857151184 -3.5332681398572428 -7.25098439904282 0 0 1
760 254 1 -1.054 -3.499727886499201 -3.2788591674369165 -7.369783003111129 0 0 1
152 51 2 0.527 -8.462991591489219 -5.67596523757533 -0.8733501791287894 0 0 0
127 43 1 -1.054 -0.19731132860838585 -2.7543698103649072 -7.821100104916961 0 0 0
941 314 2 0.527 -0.9565401989114264 -1.258476974634 7.651044621661471 0 0 -1
753 251 2 0.527 -9.460905273553704 -8.011174606427122 -7.436621453944453 0 1 1
211 71 1 -1.054 -0.9924579652399821 -7.497522573651592 -6.45768855169095 0 0 0
213 71 2 0.527 -0.8153364816541142 -8.02853308232448 -5.681208970366189 0 0 0
1011 337 2 0.527 -8.669793583305932 -7.34100181054686 -5.122364233426939 0 1 0
1010 337 2 0.527 -7.200619705454255 -7.361248045350872 -4.757542198304093 0 1 0
1133 378 2 0.527 -8.630576858847077 1.064140592970194 -7.720372279142001 0 0 1
390 130 2 0.527 -8.095495650043787 7.152407397538996 -1.4173979355506026 0 0 0
624 208 2 0.527 -4.417388875842658 1.377606083467315 -2.631785739962403 0 0 0
118 40 1 -1.054 -4.111456634900154 1.0852609422548998 -7.860345102786628 0 0 0
119 40 2 0.527 -3.8613249975691595 0.16624022928101745 -7.764954039914333 0 0 0
123 41 2 0.527 -10.25293551531845 7.140025294649311 7.161438157769437 0 0 0
389 130 2 0.527 -9.293046762158879 6.694179861114796 -0.6124917421302207 0 0 0
622 208 1 -1.054 -5.242690104983566 1.7579147878488062 -2.932630345858793 0 0 0
206 69 2 0.527 -1.3045121173951344 0.8216305541234004 -7.611812007504041 0 0 1
388 130 1 -1.054 -9.006882748485692 6.874154870435074 -1.5080255420909303 0 0 0
207 69 2 0.527 -0.5232723157775112 1.3798998789177492 -6.441352228239603 0 0 1
205 69 1 -1.054 -0.9917072430410236 1.6433717657413904 -7.233448325629225 0 0 1
578 193 2 0.527 -5.586248064072784 6.738107035493421 -4.7115666888017795 0 -1 1
623 208 2 0.527 -5.523020656019458 2.3230961323882866 -2.2127350762031393 0 0 0
577 193 1 -1.054 -5.903273846159818 7.641297151608526 -4.714190641629869 0 -1 1
642 214 2 0.527 -5.6577344802133105 1.8674068332537228 -4.653300414436664 0 0 0
120 40 2 0.527 -4.708269213393489 1.248598075702727 -7.130002239961222 0 0 0
500 167 2 0.527 -1.945856459420046 4.491266254697164 -2.4122655064270777 0 0 0
499 167 1 -1.054 -2.2400319385657816 4.763501737615899 -3.2815256309468603 0 0 0
699 233 2 0.527 -9.83910247176532 0.37476575338272333 -1.1027266259483222 0 0 0
697 233 1 -1.054 -9.213882894248215 1.021874558045445 -1.4292469847853546 0 0 0
183 61 2 0.527 -9.455322893976101 -0.0015714092506122768 -4.176098431456724 0 0 1
1026 342 2 0.527 -1.1239577824823215 4.06014327845061 -4.659919058482819 0 0 0
495 165 2 0.527 -4.316231479437018 3.699366891171147 -0.046997159981627235 0 -1 1
641 214 2 0.527 -6.43567741442828 2.556323717019392 -5.754289210772232 0 0 0
640 214 1 -1.054 -5.59823131833644 2.1301072589058894 -5.571839215239722 0 0 0
1024 342 1 -1.054 -0.4305579983132759 3.708754295419018 -5.218477419198767 0 0 0
698 233 2 0.527 -9.071147632176787 1.612266577288871 -0.6894303810238558 0 0 0
494 165 2 0.527 -2.8683770864053386 4.01740772108313 0.2604840269867825 0 -1 1
493 165 1 -1.054 -3.668825692868811 3.674151644105619 0.6576267501129216 0 -1 1
371 124 2 0.527 -5.59312528232752 4.247077315430571 -2.0453099756996114 0 0 1
370 124 1 -1.054 -6.005100020140317 4.0957429759537245 -1.1946395498681568 0 0 1
1025 342 2 0.527 -0.893604832337136 3.2034700755889656 -5.886713775237363 0 0 0
399 133 2 0.527 -5.031224025922068 3.9542111077037294 -4.478531733070472 0 -1 1