LAMMPS data file via write_data, version 23 Jun 2022, timestep = 50000

975 atoms
6 atom types
266 bonds
1 bond types
133 angles
1 angle types

-16.922458062878164 16.922458062878164 xlo xhi
-16.995526386595763 16.995526386595763 ylo yhi
-25 25 zlo zhi

Masses

1 15.9994
2 1.008
3 22.98977
4 35.45
5 22.98977
6 35.45

Pair Coeffs # lj/cut/tip4p/long

1 0.18481 3.165
2 0 0
3 0.10755 2.31
4 0.10038 4.3
5 0.10755 2.31
6 0.10038 4.3

Bond Coeffs # harmonic

1 0 0.9572

Angle Coeffs # harmonic

1 0 104.52

Atoms # full

366550 121320 1 -1.054 -12.010090775132547 -16.16642605531958 -8.380080926112898 4 6 0
244488 80920 2 0.527 -12.132618000553236 -14.40399542149205 -8.616497970563326 2 4 0
244486 80920 1 -1.054 -11.965687591073857 -13.46482596374868 -8.536915622058325 2 4 0
244487 80920 2 0.527 -11.058837404211523 -13.357117367931767 -8.823718607154152 2 4 0
244539 80937 2 0.527 -14.396069503904403 -12.879172174976008 -6.816755913767899 3 4 0
244537 80937 1 -1.054 -14.263929990781971 -12.163325095448007 -7.438316913186868 3 4 0
488762 161769 2 0.527 -14.098539351025115 -16.41815559142233 -8.045752551205386 4 6 0
366552 121320 2 0.527 -11.472606059824603 -16.826182761079693 -8.81833280800769 4 6 0
244538 80937 2 0.527 -13.54894369585166 -12.462253855746406 -8.000164531687584 3 4 0
366551 121320 2 0.527 -11.858138469064475 -16.31447474443228 -7.4466857131188195 4 6 0
489288 161944 2 0.527 16.49088407695077 -10.846748776771875 -7.328623154556004 1 3 0
488761 161769 1 -1.054 -14.79147438417564 -16.112266659141817 -7.460512953991088 4 6 0
488763 161769 2 0.527 -15.577991170432842 -16.567346295164537 -7.761390696243187 4 6 0
366193 121201 1 -1.054 16.559892887142446 -16.919295870787632 -8.25717633574959 4 7 0
489593 162046 2 0.527 -9.242052240629484 -12.733741745018651 -7.0264361754633375 0 0 0
489592 162046 1 -1.054 -8.990987687935883 -12.343118806963 -7.863462382271666 0 0 0
365843 121084 2 0.527 -5.973219914314812 -12.70677947988033 -7.689394022177071 8 9 -1
365842 121084 1 -1.054 -6.497823830182601 -13.423462385641582 -7.332471197577704 8 9 -1
365844 121084 2 0.527 -7.376358505556756 -13.275158080492075 -7.682362221793796 8 9 -1
489640 162062 1 -1.054 -9.192613249292089 -9.699374452719947 -7.632667127212674 0 0 0
489594 162046 2 0.527 -9.039932114849229 -11.399228669958562 -7.712092763836437 0 0 0
366559 121323 1 -1.054 -8.621133006942134 -16.98332048328317 -7.245608089739974 3 5 0
489642 162062 2 0.527 -9.176206731833993 -9.115006535616692 -6.874723911582621 0 0 0
122197 40445 1 -1.054 -6.215371394670223 -16.1820692669965 -8.781442844607936 2 4 0
122198 40445 2 0.527 -5.578215820584567 -16.135830285229734 -9.494274557228591 2 4 0
488394 161646 2 0.527 -4.252615001876133 -8.734718085471846 -7.75530724209962 7 7 0
488392 161646 1 -1.054 -3.454954966854653 -8.586405711987526 -8.263224560571242 7 7 0
366482 121297 2 0.527 -2.9315873609362133 -12.035046459959203 -8.140954596358883 4 6 0
366481 121297 1 -1.054 -2.583869988310341 -11.143296434344439 -8.130394033194978 4 6 0
366691 121367 1 -1.054 -3.338472588768289 -13.822425831344642 -7.916215726062681 2 5 0
366693 121367 2 0.527 -2.7967252418104724 -14.596490404248659 -8.069730445351034 2 5 0
366692 121367 2 0.527 -3.4625614811157512 -13.800690237970338 -6.96734182497998 2 5 0
365980 121130 1 -1.054 0.7474829255819248 -15.260515057947337 -9.361369444842532 7 9 0
489616 162054 1 -1.054 1.2356117981185237 -10.881251048777491 -7.278108478939281 0 0 0
489617 162054 2 0.527 0.5248458793364728 -10.839935897434568 -6.6383112307613095 0 0 0
366483 121297 2 0.527 -1.6663347432251168 -11.240452825621293 -8.385195947248283 4 6 0
365982 121130 2 0.527 1.1807476621438533 -14.656843854852449 -8.757965529194474 7 9 0
366294 121234 2 0.527 2.1799632365000665 -13.832119657599337 -6.896882646883383 5 7 0
488393 161646 2 0.527 -2.993617730025125 -9.424648854561813 -8.23574672651157 7 7 0
365981 121130 2 0.527 -0.18351376752141568 -15.18018741639927 -9.153945125707759 7 9 0
366292 121234 1 -1.054 2.223036595168417 -13.41743627841363 -7.758519379772461 5 7 0
366293 121234 2 0.527 1.7589387617165495 -12.587479312693127 -7.64888494466962 5 7 0
487583 161376 2 0.527 1.2833075576453739 -16.73391071836928 -8.428955484831464 12 11 -1
244142 80805 2 0.527 5.504151732707641 -16.348610309567675 -7.500488857575065 4 5 0
489263 161936 2 0.527 4.160624901561718 -13.111428107247013 -7.764995577988448 1 3 0
489262 161936 1 -1.054 4.941254671418141 -13.440877851597968 -7.319664798259729 1 3 0
489264 161936 2 0.527 5.47202481253494 -12.661033208437349 -7.157312764266471 1 3 0
119316 39484 2 0.527 9.651537832867904 -11.12384672171808 -8.495604939818246 21 15 -1
244418 80897 2 0.527 6.867545145698398 -8.612050184446995 -8.092126076407183 2 5 0
489538 162028 1 -1.054 8.294972364523764 -16.006102029069194 -7.029432851877056 0 2 0
489540 162028 2 0.527 9.228782867476776 -16.19460278480292 -6.936161603847685 0 2 0
244417 80897 1 -1.054 7.782791212223414 -8.627335732443713 -7.812262011136562 2 5 0
489539 162028 2 0.527 8.256234298653215 -15.065759616295965 -7.204046870998895 0 2 0
119314 39484 1 -1.054 10.117579000148936 -11.845105670741523 -8.072726335115783 21 15 -1
489510 162018 2 0.527 10.497039823735681 -13.639041668484767 -7.686848865487487 0 1 0
241613 79962 2 0.527 13.343422510392218 13.41747584604966 -12.22097236926258 21 14 -1
366761 121390 2 0.527 7.7966595940355 16.544075472419934 -9.062484126665577 2 4 0
241612 79962 1 -1.054 13.37142830911218 13.30977826368228 -11.27026207267477 21 14 -1
489286 161944 1 -1.054 16.453657989502872 -10.905125626109523 -8.283320699409108 1 3 0
121542 40226 2 0.527 15.886646141984144 -14.847896467455188 -7.915252963981855 6 6 0
489287 161944 2 0.527 -16.580334545442515 -11.3507928545466 -8.5283041239473 2 3 0
489509 162018 2 0.527 11.89509452875576 -14.201264318822803 -7.541086703376918 0 1 0
121540 40226 1 -1.054 16.165135533118704 -14.078991842606182 -7.417795139102423 6 6 0
489437 161994 2 0.527 13.249295465628945 -13.644419676759503 -9.225071043574943 0 2 0
489436 161994 1 -1.054 13.506654333526514 -14.252381187212237 -8.531974914467227 0 2 0
489508 162018 1 -1.054 11.016866306012579 -14.248937544095686 -7.163355846618023 0 1 0
489706 162084 1 -1.054 13.847938734054733 -10.815382099267499 -7.412848818971676 0 0 0
121541 40226 2 0.527 -16.75437179834598 -13.972812348894768 -7.638207724634745 7 6 0
489438 161994 2 0.527 14.248402218880795 -13.826418193049625 -8.102324769215631 0 2 0
119315 39484 2 0.527 10.474028918166525 -11.463056582975193 -7.270717183595575 21 15 -1
366621 121343 2 0.527 13.085870473209388 -15.985976674492859 -7.573538793919668 2 5 0
366619 121343 1 -1.054 12.932722954102099 -16.83085958757851 -7.150511340433548 2 5 0
489707 162084 2 0.527 13.933623039730229 -9.887514412414017 -7.631835254935377 0 0 0
366195 121201 2 0.527 16.54904046207157 -16.7287952881959 -7.3191868253025145 4 7 0
366620 121343 2 0.527 12.019443217529673 -16.794829798907735 -6.866157733454985 2 5 0
122082 40406 2 0.527 -12.66322996984972 -8.921399462725681 -7.701739044832736 2 5 0
122080 40406 1 -1.054 -11.851082389141029 -9.057466929569458 -7.213747557031847 2 5 0
120864 40000 2 0.527 -12.780160842113919 -5.583028849266914 -6.823405669260624 12 10 -1
120862 40000 1 -1.054 -13.574715572114767 -5.479523130983242 -7.347052711446703 12 10 -1
120863 40000 2 0.527 -13.76265243413777 -6.359143256620061 -7.674437646520881 12 10 -1
120467 39868 2 0.527 -15.027839991418928 -8.480224648578554 -7.633705336110742 14 11 -1
120466 39868 1 -1.054 -14.62637730090186 -8.518173149534672 -8.501818496291309 14 11 -1
120468 39868 2 0.527 -15.366162381707994 -8.505559031833739 -9.109101666023186 14 11 -1
122081 40406 2 0.527 -11.96170257456994 -9.912168046027876 -6.797230382032493 2 5 0
489603 162049 2 0.527 -13.534849867403631 -4.597874754085338 -8.843460714260173 0 0 0
489602 162049 2 0.527 -13.279820884131661 -4.720199020489326 -10.330708868750133 0 0 0
489601 162049 1 -1.054 -13.150089929887828 -4.132648815365603 -9.586269587994577 0 0 0
121988 40375 2 0.527 16.547251261990358 -3.6860777382737635 -8.091402845062238 3 5 0
489641 162062 2 0.527 -10.072692914373063 -9.597688798497732 -7.995093047422498 0 0 0
489611 162052 2 0.527 -5.7174424154076195 -5.755130498498073 -8.763821321296586 0 0 0
489612 162052 2 0.527 -5.9266445793597615 -5.4830315127752 -7.289337177011338 0 0 0
121815 40317 2 0.527 -8.754076061235192 -3.884866951749365 -7.16898442075976 5 5 0
121813 40317 1 -1.054 -9.085213534194866 -4.75000691263953 -7.410050657065582 5 5 0
121814 40317 2 0.527 -8.344576620560836 -5.179833781998196 -7.837765259751342 5 5 0
489599 162048 2 0.527 -6.592336158460767 -7.986896005439603 -8.02183781056166 0 0 0
489600 162048 2 0.527 -6.295296442456823 -9.356037639060682 -7.448150631351455 0 0 0
489598 162048 1 -1.054 -6.053309905531556 -8.433330178276218 -7.368859391285004 0 0 0
489610 162052 1 -1.054 -6.182632790949499 -5.176808417677534 -8.159356952003005 0 0 0
487326 161290 2 0.527 -2.834396847533645 -5.713261328945023 -9.107584018209495 13 12 -1
244332 80868 2 0.527 -4.165504820975492 -7.207994239576528 -9.964514849745923 3 5 0
487324 161290 1 -1.054 -2.263439373227775 -5.083841832333059 -8.667046124419619 13 12 -1
365949 121119 2 0.527 -6.034338722731024 -3.470535537751386 -7.844606513882596 7 8 0
244331 80868 2 0.527 -4.315330090860786 -6.075709715113328 -10.958185357441417 3 5 0
244330 80868 1 -1.054 -4.5616765458311255 -6.343382067966182 -10.072805741613994 3 5 0
489618 162054 2 0.527 1.3646155254651162 -9.97333051843357 -7.552467269453702 0 0 0
487325 161290 2 0.527 -2.8307306615538868 -4.33627895612095 -8.47845076852451 13 12 -1
120955 40031 1 -1.054 -0.8423232533337179 -8.408438139005375 -6.722798401299887 10 10 -1
120957 40031 2 0.527 -0.6548357089896281 -7.86439993292489 -7.487721910665156 10 10 -1
120956 40031 2 0.527 -1.7833345938805856 -8.30617212547951 -6.5804017024097465 10 10 -1
244549 80941 1 -1.054 2.7275535901277372 -5.114619019421183 -6.942592496953727 2 3 0
244551 80941 2 0.527 3.5161692336105026 -5.244163186576534 -7.469414883927224 2 3 0
244550 80941 2 0.527 2.0470057319911596 -4.895705303636881 -7.579119814285997 2 3 0
488921 161822 2 0.527 -0.16821068943734693 -6.009419317411913 -8.819069992670228 3 5 0
488922 161822 2 0.527 -0.23870869217648538 -7.183230007559429 -9.772534368859862 3 5 0
488920 161822 1 -1.054 0.0633858456760528 -6.934742155785347 -8.898906967993598 3 5 0
489595 162047 1 -1.054 2.2861324801065828 -8.193211472834225 -7.732214491224584 0 0 0
489596 162047 2 0.527 1.5755314604724933 -7.608377055752261 -7.99537302937472 0 0 0
489597 162047 2 0.527 2.2197443270199155 -8.237444317556717 -6.778341424356762 0 0 0
365358 120922 2 0.527 -0.19332615284664395 -3.942623233351819 -8.588562002021158 11 10 -1
244419 80897 2 0.527 7.755634732238941 -8.376397671792686 -6.888937704230803 2 5 0
489243 161929 2 0.527 5.318333490485655 -7.138051182364377 -7.767038804474014 1 3 0
489241 161929 1 -1.054 4.964377094283027 -7.895984613215137 -7.301758965369101 1 3 0
489242 161929 2 0.527 4.079245975851462 -8.000077026442614 -7.650966097528604 1 3 0
365285 120898 2 0.527 9.38010427417591 -4.737037400467638 -7.626124158541869 11 11 -1
365758 121056 1 -1.054 6.03000713098351 -5.259300552434844 -7.728909025531787 8 10 -1
365759 121056 2 0.527 6.965982511064859 -5.294823028908105 -7.531622046277917 8 10 -1
365760 121056 2 0.527 5.6012910091421935 -5.418232530942218 -6.887970687121681 8 10 -1
365284 120898 1 -1.054 8.741779870746136 -5.293548275467694 -7.179948465841022 11 11 -1
365286 120898 2 0.527 9.104966007583585 -6.176633764030542 -7.246969023758101 11 11 -1
488505 161683 2 0.527 5.208152970123219 -3.3586954059451566 -7.260545290077608 6 7 0
489708 162084 2 0.527 14.68089546855149 -11.20320660404093 -7.681197059513586 0 0 0
121919 40352 2 0.527 9.317804773931186 -8.174729259435635 -7.577726210871374 2 5 0
121920 40352 2 0.527 10.778099992494742 -8.064822589840771 -7.961596449180689 2 5 0
489326 161957 2 0.527 16.240462866393962 -9.032861267781378 -7.8111942862474715 0 3 0
121918 40352 1 -1.054 10.16167445449664 -7.852901270421279 -7.260638792169014 2 5 0
489325 161957 1 -1.054 16.158079648779022 -8.187976551344146 -7.368910198992497 0 3 0
122290 40476 1 -1.054 13.371738008510146 -5.09238110385166 -7.454943162387351 1 3 0
122292 40476 2 0.527 12.623150567944856 -4.787396078970508 -7.9676208731334786 1 3 0
122291 40476 2 0.527 14.028777321849752 -4.403758929849682 -7.55660081533949 1 3 0
366649 121353 1 -1.054 13.711543906960546 -7.726661211675789 -8.05090093971817 2 5 0
366650 121353 2 0.527 13.508514565369797 -6.793341537098609 -8.113568596874599 2 5 0
366651 121353 2 0.527 13.621090390947874 -7.92995467777058 -7.119921173496335 2 5 0
489327 161957 2 0.527 15.32670424485063 -7.832628269711361 -7.683196578231685 0 3 0
121987 40375 1 -1.054 15.854154857450629 -3.633138730180044 -7.433339034095381 3 5 0
489555 162033 2 0.527 -14.423795510122668 -2.75340590271626 -8.712961264762892 1 1 0
489639 162061 2 0.527 -11.793364537413707 -2.9464789738207253 -8.206414198575239 0 0 0
489637 162061 1 -1.054 -11.684201078558631 -2.3444808575083464 -7.470263574525564 0 0 0
489553 162033 1 -1.054 -15.20114485694788 -2.6761085235841353 -8.1598005039161 1 1 0
489554 162033 2 0.527 -14.898684662072714 -2.920943361975452 -7.285267188234124 1 1 0
121796 40311 2 0.527 16.77166091187466 -0.8875322286596701 -7.947352473658971 5 6 0
121795 40311 1 -1.054 16.03516168604497 -0.27764692560108684 -7.90442765063301 5 6 0
121797 40311 2 0.527 16.05821296824994 0.06392867122166246 -7.010542887693878 5 6 0
489671 162072 2 0.527 -15.498018479776764 2.9246045999743613 -8.360923903209635 0 0 0
489670 162072 1 -1.054 -14.70115286599263 3.421435147603987 -8.175458998326267 0 0 0
489672 162072 2 0.527 -14.448416134615977 3.1491267656509248 -7.293299954403272 0 0 0
489638 162061 2 0.527 -10.896015517892758 -1.8449808585726009 -7.68356858535704 0 0 0
489245 161930 2 0.527 -14.39130635531974 -1.0213169628688679 -7.667706713864158 2 3 0
489246 161930 2 0.527 -13.440819110540637 0.09515908689023811 -8.04447296508326 2 3 0
489244 161930 1 -1.054 -14.165084792881014 -0.11581877473038957 -7.455269258450429 2 3 0
121989 40375 2 0.527 16.09291315987074 -4.290600864330397 -6.779903854171953 3 5 0
489570 162038 2 0.527 16.37749306244986 1.6516974108906262 -8.222918901344455 0 1 0
121163 40100 2 0.527 -9.390287907526703 2.337279797969836 -8.145431619023254 9 10 -1
121164 40100 2 0.527 -9.049148481085131 2.3630481618384316 -6.670691213966027 9 10 -1
121162 40100 1 -1.054 -9.147605821476484 1.7687689003686577 -7.414585913418664 9 10 -1
244290 80854 2 0.527 -8.824197815678193 -1.3058574200166322 -6.879721149049008 3 4 0
244288 80854 1 -1.054 -8.674150879808943 -1.2462881019633507 -7.82321030449677 3 4 0
244289 80854 2 0.527 -8.445178185340486 -0.32892080012959357 -7.972349043868286 3 4 0
365947 121119 1 -1.054 -5.959190099536713 -2.551179748284528 -7.588919679793462 7 8 0
365948 121119 2 0.527 -6.825831424296832 -2.1827606030595614 -7.760481174999645 7 8 0
366719 121376 2 0.527 -6.926037744816671 2.35841809551958 -7.349502678948936 2 4 0
366720 121376 2 0.527 -5.419056377370537 2.4692304914705874 -7.256624575755189 2 4 0
366718 121376 1 -1.054 -6.222613311387455 2.9818110910852846 -7.168356870316856 2 4 0
489111 161885 2 0.527 -4.102340639617611 -2.4849033957006843 -8.002683872736412 2 4 0
489110 161885 2 0.527 -3.0104194931510357 -2.6354817218653026 -6.964930702009506 2 4 0
489109 161885 1 -1.054 -3.150612982405741 -2.490293408711966 -7.900612281919817 2 4 0
121384 40174 1 -1.054 2.393379036508404 -1.8868579983504816 -8.131472053422828 7 9 0
121386 40174 2 0.527 2.4167181670523212 -2.147839458266378 -7.210829030833361 7 9 0
365357 120922 2 0.527 1.0571788495386052 -3.129665097141 -8.847876109566048 11 10 -1
365356 120922 1 -1.054 0.7408354895923478 -4.0303737943028795 -8.777973860926625 11 10 -1
489590 162045 2 0.527 1.2249898854210621 1.1640194681475236 -7.627583276912549 0 0 0
489589 162045 1 -1.054 1.9237642853340107 0.6446061777533799 -7.229893622180561 0 0 0
366755 121388 2 0.527 -2.5652419122343133 1.1875543417327814 -7.248827721340512 2 4 0
366756 121388 2 0.527 -2.888458239996406 -0.20099000482541496 -7.758113897305567 2 4 0
366754 121388 1 -1.054 -3.269507641379366 0.5404601019318046 -7.28770407582847 2 4 0
489591 162045 2 0.527 1.6534826308180617 -0.2638214524088357 -7.363836848405753 0 0 0
121385 40174 2 0.527 3.3128831907415073 -1.7738907982519494 -8.37227148967383 7 9 0
488453 161666 2 0.527 3.6703020987495623 0.6444549159026423 -8.151909037671636 7 7 0
488452 161666 1 -1.054 4.617902797131059 0.5138886812928724 -8.116674748174734 7 7 0
488454 161666 2 0.527 4.772245297752315 0.10443883068668038 -7.265342312157386 7 7 0
489684 162076 2 0.527 8.687099154298574 1.3442182787681012 -7.098031773644197 0 0 0
489682 162076 1 -1.054 8.371247089438556 0.4540965234670259 -7.2534453885175685 0 0 0
488503 161683 1 -1.054 5.4210142866617606 -2.5042793505164473 -6.885172392614832 6 7 0
488504 161683 2 0.527 6.377565151227229 -2.4873284196212126 -6.854222957599515 6 7 0
489683 162076 2 0.527 7.953655782152847 0.49442164221398 -8.113808278393394 0 0 0
366785 121398 2 0.527 11.347301990448349 -3.498096848824156 -9.69112474361535 2 4 0
366786 121398 2 0.527 11.112110129967988 -3.0515551379926373 -8.263825339641386 2 4 0
366784 121398 1 -1.054 11.230124126329335 -3.833964584393597 -8.802476793617192 2 4 0
244325 80866 2 0.527 6.280700995725958 0.5301370149319912 -8.83677144445509 3 4 0
244326 80866 2 0.527 6.380194656075868 0.8317183095680184 -10.316989654546106 3 4 0
244324 80866 1 -1.054 6.892524880479749 0.8314065796396467 -9.508441659921344 3 4 0
366391 121267 1 -1.054 4.927132464147892 3.359091732728981 -7.346064989436966 4 7 0
366392 121267 2 0.527 4.857517574001358 2.548890147365235 -7.851000706425232 4 7 0
489717 162087 2 0.527 10.919216638579908 1.3992711583782336 -6.492766295664378 0 0 0
365911 121107 1 -1.054 10.544635577313077 -1.5203872787068102 -7.40699505528404 8 8 0
365913 121107 2 0.527 11.320638306479964 -0.9618450046261798 -7.3613427169560355 8 8 0
365912 121107 2 0.527 9.80906036481183 -0.919337890217676 -7.28907962117812 8 8 0
489715 162087 1 -1.054 10.856159163906895 2.182265784496288 -7.039738188524389 0 0 0
489716 162087 2 0.527 11.584402040784818 2.1038170494957296 -7.65596963632151 0 0 0
366849 121419 2 0.527 14.259240896378724 -0.3307215082911989 -7.4805885387013955 1 3 0
366847 121419 1 -1.054 13.382694382280501 -0.4680257573295367 -7.121349196563228 1 3 0
366848 121419 2 0.527 13.410893361895987 -1.3498706540154737 -6.750149759318498 1 3 0
489427 161991 1 -1.054 13.903307822475725 3.459550751099795 -8.161646201861545 0 1 0
489428 161991 2 0.527 13.559640858108276 3.3548205638873823 -7.274425836264097 0 1 0
489221 161922 2 0.527 -10.843644848519542 4.739169421603827 -9.70889752494536 1 3 0
243963 80745 2 0.527 -13.921699843179022 7.292056642945982 -8.224633128686268 6 6 0
243962 80745 2 0.527 -13.372729711623816 6.495605508286919 -9.389194023131983 6 6 0
243961 80745 1 -1.054 -13.242081605690009 7.307031414927258 -8.898525856867678 6 6 0
489206 161917 2 0.527 -16.116250229873607 5.910691334836341 -6.520423257462066 1 3 0
489207 161917 2 0.527 -15.587978574283113 5.320275386472599 -7.810477027613519 1 3 0
489205 161917 1 -1.054 -15.534161500611415 6.09907537702811 -7.25657424014224 1 3 0
488223 161589 2 0.527 -12.132232815172038 8.576501688796357 -8.008442624680074 8 8 0
488221 161589 1 -1.054 -11.577290941385138 9.095733614420025 -7.426482701413668 8 8 0
489504 162016 2 0.527 -13.69959938306175 4.788351726791286 -11.155290257855633 1 1 0
488222 161589 2 0.527 -10.683959168721582 8.900684705114863 -7.709591949752522 8 8 0
489502 162016 1 -1.054 -13.04010035019887 4.742890045522362 -10.46302797700422 1 1 0
489503 162016 2 0.527 -13.463497476895373 4.24992316458123 -9.760210427216427 1 1 0
489485 162010 2 0.527 -16.760639716330953 7.661303974684668 -7.037424447424834 1 1 0
489569 162038 2 0.527 15.766862908559325 3.030513174022645 -8.356733074240266 0 1 0
121625 40254 2 0.527 -14.386392778370595 10.277064031845681 -6.823455217270373 6 6 0
365925 121111 2 0.527 -8.189808392058776 6.549997285820482 -10.90788244524147 8 9 0
489220 161922 1 -1.054 -10.091152668943696 4.408234979216947 -9.218519858626912 1 3 0
365923 121111 1 -1.054 -7.6665067317487985 6.298085553780563 -10.147009213134185 8 9 0
365924 121111 2 0.527 -8.26006154985863 5.772131250120604 -9.611007578801319 8 9 0
489236 161927 2 0.527 -10.496398574109108 6.513479201065966 -6.798868509517085 2 3 0
244111 80795 1 -1.054 -5.545315131997038 5.462273479170484 -8.66397527725716 5 5 0
244113 80795 2 0.527 -6.2380308629006045 5.53613370564841 -9.320423248645557 5 5 0
489222 161922 2 0.527 -10.034002752590332 4.979249520927018 -8.452418658886378 1 3 0
244112 80795 2 0.527 -5.967511064432451 5.039639236508588 -7.916067501001114 5 5 0
489237 161927 2 0.527 -9.336977621109906 7.0987450880569885 -7.576764153112576 2 3 0
489235 161927 1 -1.054 -9.642218957386648 6.288878718494917 -7.167880548502208 2 3 0
488956 161834 1 -1.054 -6.120922910318547 8.715176959555668 -7.256763405666147 4 5 0
488958 161834 2 0.527 -6.268524731854817 7.88332169153452 -7.706724410293722 4 5 0
488957 161834 2 0.527 -5.630035916460065 9.24430564608655 -7.885482296569324 4 5 0
489663 162069 2 0.527 -3.7270564211868544 9.173797287177026 -8.990497545902853 0 0 0
489661 162069 1 -1.054 -4.294606169022631 9.9403563443488 -8.909807626790315 0 0 0
489662 162069 2 0.527 -4.607946016517079 10.101712731875075 -9.799759764521808 0 0 0
489656 162067 2 0.527 -3.60743669301662 4.85077070383523 -8.928178118049532 0 -1 0
489655 162067 1 -1.054 -2.7498913954791777 4.60101974903258 -8.583971079127979 0 -1 0
489657 162067 2 0.527 -2.9399616543073814 4.192603814500141 -7.739397704512324 0 -1 0
244445 80906 2 0.527 -2.8523089299815374 6.5031187344924986 -8.293781342867236 3 4 0
243856 80710 1 -1.054 -8.915118942782678 8.67662671202683 -8.071842293588649 7 6 0
243858 80710 2 0.527 -8.94419074938329 8.798845750858668 -7.122918753418488 7 6 0
243857 80710 2 0.527 -8.354804364160103 9.38535931124946 -8.388039081772504 7 6 0
243915 80729 2 0.527 1.0708383307911717 3.9332843500045853 -7.2104650105362404 6 6 0
244446 80906 2 0.527 -3.474735464909619 7.650796165964226 -7.527414487720731 3 4 0
243913 80729 1 -1.054 0.1651983827246083 3.623583133588935 -7.198606469374127 6 6 0
122236 40458 1 -1.054 -0.5871956109298466 8.245252901965861 -7.172710410774577 1 3 0
122237 40458 2 0.527 -0.5273510718215496 7.408601599548143 -6.7115508171065015 1 3 0
122238 40458 2 0.527 -1.3656915944133527 8.160704358375996 -7.723194821040505 1 3 0
243914 80729 2 0.527 -0.32004915365528885 4.28178985104893 -7.696132896970432 6 6 0
244444 80906 1 -1.054 -3.0534099771300287 7.436625350618562 -8.35978957213228 3 4 0
366463 121291 1 -1.054 2.5851914785248984 5.083026844489566 -7.231326648214306 4 5 0
366465 121291 2 0.527 3.376909463662792 4.545169260679914 -7.242563572168108 4 5 0
489078 161874 2 0.527 3.2177125113211327 12.25391709681117 -7.719014041546716 2 4 0
489076 161874 1 -1.054 2.327940659407326 11.994071243096638 -7.4802274258424255 2 4 0
489077 161874 2 0.527 2.2311563061840705 11.111880775814782 -7.83884582151936 2 4 0
366464 121291 2 0.527 2.6178672612135436 5.575352793360958 -8.051559646407249 4 5 0
366474 121294 2 0.527 2.1609894841446002 9.208474845478777 -7.075902604958345 4 5 0
366393 121267 2 0.527 5.435144488724492 3.9472266673480014 -7.904863315594296 4 7 0
489714 162086 2 0.527 6.854801852256185 6.0905029494441765 -8.136200148248776 0 0 0
489712 162086 1 -1.054 6.512248788205712 5.547127123635109 -8.84587327675188 0 0 0
366472 121294 1 -1.054 1.8648252967915664 9.40206200777011 -7.9653093346501365 4 5 0
122147 40428 2 0.527 3.0046945904100437 5.413491384199737 -10.481488247343547 2 4 0
122146 40428 1 -1.054 2.7208294431935176 6.098741256862497 -9.876438394013254 2 4 0
122148 40428 2 0.527 3.358798379874874 6.802506914405375 -9.994515021802155 2 4 0
366473 121294 2 0.527 1.0430981268182016 8.919411983165968 -8.055015166592726 4 5 0
489713 162086 2 0.527 7.111529280071544 5.700571352816158 -9.576319135843317 0 0 0
122078 40405 2 0.527 9.132412586722795 6.541829062515589 -6.8941920170293995 2 4 0
122079 40405 2 0.527 8.172008251060326 7.661624265108215 -6.554218205034095 2 4 0
122077 40405 1 -1.054 8.218538232136964 6.810237137133374 -6.989201492672732 2 4 0
489429 161991 2 0.527 13.791030716243222 4.390447141232002 -8.354164515748622 0 1 0
489484 162010 1 -1.054 16.56010578744512 8.434496404314947 -7.246357155578011 0 1 0
489486 162010 2 0.527 16.813278715162635 8.661440547107127 -8.14113795918804 0 1 0
489568 162038 1 -1.054 16.600325374431637 2.563101856460491 -8.412456480491313 0 1 0
489093 161879 2 0.527 10.618947768261634 9.406835679219936 -7.636546722985108 2 4 0
489091 161879 1 -1.054 10.792022418103015 8.664603810806854 -7.057434356002065 2 4 0
489092 161879 2 0.527 11.697923840665533 8.41942319915854 -7.2457490078070395 2 4 0
119188 39442 1 -1.054 13.662303422486332 8.453967090231204 -8.467048419385636 22 14 -1
364804 120738 1 -1.054 13.014148877166845 6.065935219053632 -7.268571168159567 14 12 -1
364806 120738 2 0.527 13.2711255058828 6.907543158185033 -7.645262605195111 14 12 -1
364805 120738 2 0.527 12.072693130760543 6.148457458265542 -7.1166353464946575 14 12 -1
119189 39442 2 0.527 13.61393186996818 9.34222588802299 -8.820449510339346 22 14 -1
119190 39442 2 0.527 14.578975693574506 8.346181499566436 -8.213418925557194 22 14 -1
366586 121332 1 -1.054 -11.59465562074589 14.830176204507145 -7.375438752283823 3 5 0
366587 121332 2 0.527 -12.462057469907693 14.439256111966515 -7.480455382112473 3 5 0
366194 121201 2 0.527 16.581259291929417 16.1161323285313 -8.30774886656714 4 6 0
366588 121332 2 0.527 -10.993335932575084 14.182145680578298 -7.742461857707464 3 5 0
122054 40397 2 0.527 -15.925619343288988 11.4609176292825 -8.477479816064884 3 4 0
365615 121008 2 0.527 -9.738199085270043 12.218683464920806 -7.987374930220098 10 9 -1
365614 121008 1 -1.054 -10.682066060329552 12.258870726957095 -8.141434136566765 10 9 -1
365616 121008 2 0.527 -10.988554826336307 11.365155642507334 -7.987900962645441 10 9 -1
121624 40254 1 -1.054 -14.267569882536186 11.046411151948982 -7.380429725284579 6 6 0
121626 40254 2 0.527 -13.354951527435645 11.301692795714434 -7.245550973123688 6 6 0
366560 121323 2 0.527 -8.649679360519805 16.053749933038553 -7.318665079333506 3 4 0
366561 121323 2 0.527 -7.808873673408448 -16.733113648695653 -7.685912034407714 3 5 0
122199 40445 2 0.527 -6.02648653455394 -15.415222157887278 -8.240609542368125 2 4 0
365267 120892 2 0.527 -7.343047698403884 11.163913239836038 -6.758472243861401 12 11 -1
365266 120892 1 -1.054 -8.083946901675594 11.437176890247944 -7.299425501879746 12 11 -1
365268 120892 2 0.527 -7.859618174542598 12.323228414914169 -7.583727425576494 12 11 -1
366744 121384 2 0.527 -7.352843023773311 14.25945535208357 -7.644477046472474 3 4 0
366742 121384 1 -1.054 -8.288010871814157 14.153317790114038 -7.818915876178351 3 4 0
366743 121384 2 0.527 -8.692932186092762 14.131680745476913 -6.95184786811146 3 4 0
243879 80717 2 0.527 -5.1662108297296445 13.21215125984899 -7.251531587523522 6 6 0
243877 80717 1 -1.054 -5.6022324110660495 14.062375939971606 -7.3084171597524525 6 6 0
243878 80717 2 0.527 -4.891241223160618 14.687822485027432 -7.4482080919395015 6 6 0
120689 39942 2 0.527 -2.1670055437049434 15.128401372025664 -7.907020631533446 12 10 -1
120688 39942 1 -1.054 -3.004958729069363 15.559633416099345 -7.739370523518567 12 10 -1
487582 161376 1 -1.054 1.6281741392723654 16.398969356827266 -8.182290410919787 12 10 -1
122184 40440 2 0.527 -2.598737847859404 12.100863253259803 -7.49302181610952 2 4 0
122182 40440 1 -1.054 -3.5108784691072805 12.003280063152742 -7.2196907318356365 2 4 0
487584 161376 2 0.527 2.1551587030235004 16.12709071210119 -8.933691564622874 12 10 -1
120690 39942 2 0.527 -3.180944520952558 15.390527065789511 -6.8138079931783855 12 10 -1
366727 121379 1 -1.054 -0.6655682539327105 11.710096412227905 -7.871840982855393 2 4 0
366729 121379 2 0.527 -0.08606476070996134 11.198492582099213 -8.436351080844775 2 4 0
366728 121379 2 0.527 -0.3844614963557697 11.495943170364622 -6.98225988622626 2 4 0
122277 40471 2 0.527 -0.22634951506258694 13.529972382239935 -7.498221403430442 1 3 0
122275 40471 1 -1.054 -0.6202222730054368 14.384502664250737 -7.32249967752437 1 3 0
122276 40471 2 0.527 -0.006605563474224375 15.014025737492785 -7.701194991238587 1 3 0
489586 162044 1 -1.054 -1.7942275814622848 -15.95434932954042 -8.033219219709297 0 2 0
489587 162044 2 0.527 -1.3529425902198589 -16.08560921395536 -7.194010536908946 0 2 0
122183 40440 2 0.527 -3.8321023156643195 11.25260539059895 -7.719226156899118 2 4 0
489588 162044 2 0.527 -2.3425441340744593 -16.73161334730382 -8.140194756290816 0 2 0
244143 80805 2 0.527 4.148352424401383 -15.816438053119839 -7.913405578601297 4 5 0
489525 162023 2 0.527 5.138366365394562 12.198105839434744 -7.383411233607095 1 1 0
243463 80579 1 -1.054 8.009634572330597 12.30256545773689 -7.179811810194603 9 8 -1
243464 80579 2 0.527 8.035016380307626 13.196712093836728 -6.839089429831037 9 8 -1
244141 80805 1 -1.054 4.779337843288406 -16.510424194798745 -8.10438879624518 4 5 0
489524 162023 2 0.527 4.735877245595698 13.516566776950512 -8.009160966323625 1 1 0
489523 162023 1 -1.054 4.807924160193958 12.580597741658297 -8.196272378142638 1 1 0
122090 40409 2 0.527 4.466473353005198 15.870697884546418 -7.371114570678555 2 4 0
122091 40409 2 0.527 3.4479423276479477 14.930962353987603 -6.761695168496532 2 4 0
122089 40409 1 -1.054 4.376499986578982 15.000087680000592 -6.983584457339669 2 4 0
243465 80579 2 0.527 7.937100429280158 12.409143896106844 -8.128293121087019 9 8 -1
366762 121390 2 0.527 6.360005488043476 16.76804502013294 -9.4840999823262 2 4 0
366760 121390 1 -1.054 7.049513294609332 16.104298977798493 -9.468196198402993 2 4 0