LAMMPS data file via write_data, version 23 Jun 2022, timestep = 100000

1566 atoms
4 atom types
660 bonds
1 bond types
330 angles
1 angle types

-17.041183502137486 17.041183502137486 xlo xhi
-16.99176666040339 16.99176666040339 ylo yhi
-26 26 zlo zhi

Masses

1 15.9994
2 1.008
3 22.98977
4 35.45

Pair Coeffs # lj/cut/tip4p/long

1 0.18481 3.165
2 0 0
3 0.10755 2.31
4 0.10038 4.3

Bond Coeffs # harmonic

1 0 0.9572

Angle Coeffs # harmonic

1 0 104.52

Atoms # full

46697 15278 2 0.527 -15.294944788883218 -15.7421197711788 -7.43496167412733 1 -2 0
47380 15506 1 -1.054 -11.820010665968242 -12.139941695378978 -6.68248880657739 1 1 0
46696 15278 1 -1.054 -15.224749536190158 -14.919341325814084 -6.9508710810235135 1 -2 0
47314 15484 1 -1.054 -12.253419282744508 -15.50120440650041 -7.07422646221491 -1 0 0
47316 15484 2 0.527 -12.152672485565432 -15.038550341459633 -6.242339755864859 -1 0 0
47382 15506 2 0.527 -12.745298400787712 -12.381194502832761 -6.639208200904269 1 1 0
47311 15483 1 -1.054 15.673922603894418 -14.58877590275074 -7.376430099052005 0 1 0
46698 15278 2 0.527 -16.057542546641912 -14.843099325031949 -6.485169910518384 1 -2 0
47315 15484 2 0.527 -13.198012740141712 -15.625145415840455 -7.167038034795089 -1 0 0
44383 14507 1 -1.054 -14.561979232761335 -12.024237420845628 -8.271284634467165 0 2 0
44384 14507 2 0.527 -15.052988412807741 -11.53075347562737 -8.928261120809951 0 2 0
44385 14507 2 0.527 -14.984272112378724 -12.883011263531325 -8.251079610202476 0 2 0
47492 15543 2 0.527 -15.913937455734834 -9.239392708600759 -9.997433552228738 0 0 0
47381 15506 2 0.527 -11.816248742526325 -11.186669864630874 -6.595929471939418 1 1 0
47493 15543 2 0.527 -16.91534234301994 -10.346601191226352 -9.746088444888372 0 0 0
47491 15543 1 -1.054 -15.999596354744574 -10.192560954853022 -9.978280562336188 0 0 0
47571 15569 2 0.527 -15.951030084790123 -12.1202124766147 -6.938260456816026 1 1 0
47569 15569 1 -1.054 -16.889746826026425 -12.211440895172617 -6.774788579236007 1 1 0
47673 15603 2 0.527 -11.81018454543603 16.734204210715514 -7.139107109597983 0 -1 0
46208 15115 2 0.527 -6.110127107249415 -12.829430868910446 -7.329900731414442 1 0 0
47856 15664 2 0.527 -10.164343579465495 -14.49598530764914 -6.862957387743665 0 1 0
47854 15664 1 -1.054 -9.247966036652144 -14.52487819170084 -6.587908919459741 0 1 0
46207 15115 1 -1.054 -5.965153558416128 -12.000967216957738 -6.872884584617307 1 0 0
43674 14270 2 0.527 -7.3598575036180875 -16.353260262250203 -8.377388194415547 1 -2 0
47717 15618 2 0.527 -5.370820577881925 -15.184549358176335 -8.073896143699763 0 0 0
47855 15664 2 0.527 -8.918357304773968 -13.642498134298954 -6.7581926680073945 0 1 0
47716 15618 1 -1.054 -6.057302154591264 -14.669235562826664 -7.650307317309806 0 0 0
47718 15618 2 0.527 -6.034336947793459 -14.9458742712137 -6.7342406913203625 0 0 0
47609 15582 2 0.527 -3.1832756760405294 -15.414509986797599 -8.504136188516435 0 1 0
47374 15504 1 -1.054 -3.2304663670861133 -12.051208586429878 -7.765976399720707 0 0 0
47375 15504 2 0.527 -3.0018535975950824 -12.12755026710456 -6.8396174637847515 0 0 0
47376 15504 2 0.527 -2.997075584447721 -12.900169227912095 -8.141514049484293 0 0 0
47608 15582 1 -1.054 -2.684171128846407 -14.643870553956233 -8.774771662373867 0 1 0
47610 15582 2 0.527 -1.860147903665771 -14.710006065735207 -8.292226027646173 0 1 0
47485 15541 1 -1.054 2.2862547671374167 -14.782240917410226 -9.371831194761146 1 -1 0
47182 15440 1 -1.054 2.6519366353157325 -12.158047921886475 -7.599426558778997 -1 0 0
47444 15527 2 0.527 2.6706911174919843 -10.60738237379699 -8.990923021260071 0 2 0
45902 15013 2 0.527 0.8019187394731974 -11.859627414628282 -6.897696299150247 -1 1 0
47487 15541 2 0.527 2.7727023161315003 -14.503757724103526 -10.147748947425626 1 -1 0
47183 15440 2 0.527 3.082333927298035 -12.980790837474917 -7.831989667070768 -1 0 0
47416 15518 1 -1.054 -0.20495923663915436 -14.915306082415652 -7.854685695484148 1 0 0
47417 15518 2 0.527 -0.014762040630313292 -14.199764751748267 -7.248007967019346 1 0 0
47418 15518 2 0.527 0.62914841987398 -15.08774128186721 -8.29145080691888 1 0 0
45569 14902 2 0.527 -2.186488781592221 -8.85261764776097 -7.370928332763578 2 0 0
47525 15554 2 0.527 -0.7063653166608866 -16.841985263498426 -6.609176280944765 0 1 0
47184 15440 2 0.527 2.9685036478462044 -11.962531156933757 -6.717500662903923 -1 0 0
47486 15541 2 0.527 2.9538719452416946 -15.136185332289491 -8.784257573708846 1 -1 0
47638 15592 1 -1.054 4.630593746462425 -14.157088445540566 -7.301479698555351 -1 0 0
46003 15047 1 -1.054 5.607245175314135 -11.623439467216647 -6.786612503499999 1 0 0
47767 15635 1 -1.054 8.824259789019942 -14.392467768878237 -6.751480698427972 0 1 0
46004 15047 2 0.527 5.431853696156805 -11.02983681538018 -7.516753861102503 1 0 0
47769 15635 2 0.527 9.768083241178465 -14.5295357796334 -6.669963936420012 0 1 0
47639 15592 2 0.527 5.193019109735838 -14.663236075280718 -7.88776031203635 -1 0 0
47640 15592 2 0.527 4.927184808462358 -14.392094585984571 -6.422253627604109 -1 0 0
47590 15576 1 -1.054 6.769707948962309 -15.508866630623574 -8.147615075885174 1 1 0
47592 15576 2 0.527 7.507325943380225 -15.108612874086816 -7.687235593733523 1 1 0
46005 15047 2 0.527 5.226771545895636 -12.45834762692088 -7.059377033483592 1 0 0
47768 15635 2 0.527 8.71995223137658 -13.441023931287601 -6.761936182828668 0 1 0
47217 15451 2 0.527 8.177866302534587 -10.975023008005923 -6.241472009712106 1 -1 0
47312 15483 2 0.527 16.14264507801619 -13.78811281196782 -7.611950935273335 0 1 0
47570 15569 2 0.527 16.778895043137847 -11.655459067049701 -7.435054694592933 0 1 0
46782 15306 2 0.527 13.934154322034189 -13.819099205899775 -7.51670872163725 0 1 0
47478 15538 2 0.527 11.457920741037192 -12.746486965550062 -7.173130674028596 0 1 0
46780 15306 1 -1.054 13.398277794048509 -13.02646087231954 -7.488533458667663 0 1 0
47602 15580 1 -1.054 14.2795951638517 16.85230014877119 -7.954576660756091 -1 0 0
46781 15306 2 0.527 13.72394366008636 -12.543476927767584 -6.728993470449199 0 1 0
47476 15538 1 -1.054 10.814684828936269 -12.180694324380072 -6.746096196271204 0 1 0
46436 15191 2 0.527 14.613049854006151 -11.73757529119155 -8.55157507595497 -2 0 0
46435 15191 1 -1.054 15.402282995008742 -11.215232759177699 -8.694763535412518 -2 0 0
47604 15580 2 0.527 14.840862565723475 16.26426817264361 -7.449174092491001 -1 0 0
47818 15652 1 -1.054 11.6248506768538 -15.093442009618148 -7.992027507736815 -1 0 0
47820 15652 2 0.527 12.305026807406323 -14.432652272925576 -8.122218065886491 -1 0 0
47834 15657 2 0.527 12.618106705060015 16.38224757184216 -6.683049053999615 0 0 0
47835 15657 2 0.527 11.613132408168887 15.258633032040672 -6.822379942685962 0 0 0
47313 15483 2 0.527 15.855824669928031 -14.707967182495299 -6.444261533501107 0 1 0
47603 15580 2 0.527 14.768056089814241 -16.309033970718072 -7.994924296174035 -1 1 0
47819 15652 2 0.527 11.89650717869434 -15.565637366510874 -7.204965126713123 -1 0 0
45958 15032 1 -1.054 -12.764756271692315 -7.104520187283309 -9.936025607204884 0 1 0
45959 15032 2 0.527 -13.626675788983682 -7.356640516147715 -9.604717884200378 0 1 0
47040 15392 2 0.527 -13.577792302818718 -9.211295148083039 -7.143297189870868 1 0 0
47529 15555 2 0.527 16.438656239096783 -8.90845508383545 -6.6076891761840875 -1 1 0
46828 15322 1 -1.054 -12.998056400749292 -3.1048873287541685 -9.216719316951846 0 0 0
46829 15322 2 0.527 -13.449653437539519 -3.8407694155718395 -9.629963064269432 0 0 0
46830 15322 2 0.527 -13.446284286275194 -2.3288314746090357 -9.552965680115577 0 0 0
47719 15619 1 -1.054 -11.208987723144578 -5.110090356969691 -10.7346632004934 1 0 0
47721 15619 2 0.527 -11.740890649989238 -5.737072889264639 -10.244556596742411 1 0 0
47720 15619 2 0.527 -11.51268145355221 -5.1927004401271875 -11.638642157772034 1 0 0
47038 15392 1 -1.054 -14.23648770466972 -8.757285363725057 -6.617720826828962 1 0 0
45457 14865 1 -1.054 -14.884726774407033 -3.6285697565845214 -6.539801352060459 -1 -1 0
45960 15032 2 0.527 -12.191290366988952 -7.830278034164114 -9.689761048516466 0 1 0
47618 15585 2 0.527 -10.991424754117034 -5.561847966556637 -7.259905259676032 0 0 0
46471 15203 1 -1.054 16.64769474055946 -5.23482261267896 -10.858123553942555 1 0 0
47622 15586 2 0.527 -11.579719047703437 -3.5874989578855896 -8.467258331435767 0 0 0
47548 15562 1 -1.054 -16.738975769418115 -6.116994124100202 -6.2552859824199745 1 1 0
47550 15562 2 0.527 -16.05349960760945 -6.541570116701474 -6.771125297458478 1 1 0
47349 15495 2 0.527 -11.656623326406415 -10.391886507748401 -8.564677889074497 1 0 0
47347 15495 1 -1.054 -11.889440546448808 -9.567315618803168 -8.137932041982072 1 0 0
47527 15555 1 -1.054 16.84143127948511 -9.041327193684465 -7.465798604903511 -1 1 0
47528 15555 2 0.527 -16.460688149557946 -9.565862022455702 -7.286047124133928 0 1 0
47115 15417 2 0.527 -8.34010177949799 -5.124831569963126 -10.754620249808374 0 1 0
47786 15641 2 0.527 -16.48448624277282 -7.257434547656136 -9.949780447453715 0 1 0
47785 15641 1 -1.054 -15.683519364765345 -7.584903503457138 -9.540573448319476 0 1 0
47787 15641 2 0.527 -15.952005556367792 -7.840181435354636 -8.657972641837437 0 1 0
47810 15649 2 0.527 -13.944890441211085 -5.716164862169818 -10.60852998367702 0 0 0
47811 15649 2 0.527 -15.360930284774353 -5.180701398103103 -10.60608745102656 0 0 0
47809 15649 1 -1.054 -14.4478004053987 -4.905647274871673 -10.688379428548629 0 0 0
45458 14865 2 0.527 -14.360752660271533 -3.4625298288752266 -7.323456557903062 -1 -1 0
47620 15586 1 -1.054 -10.66952609483178 -3.8393777101885385 -8.311246474736699 0 0 0
47617 15585 1 -1.054 -11.047893654065092 -6.299258118397059 -6.652229334029704 0 0 0
47619 15585 2 0.527 -10.534141695099546 -6.992117096625706 -7.0672446210509925 0 0 0
47348 15495 2 0.527 -11.070596237536217 -9.0724424970707 -8.109115850494065 1 0 0
47345 15494 2 0.527 -5.819351000290486 -7.129805429613751 -8.779426478011995 1 1 0
47344 15494 1 -1.054 -6.772403760608671 -7.0441207466167555 -8.803533212118658 1 1 0
47346 15494 2 0.527 -6.989384128120853 -6.553567410063807 -8.0107473173301 1 1 0
47131 15423 1 -1.054 -7.076366076109007 -5.632033399825742 -6.457192162449795 0 0 0
47410 15516 1 -1.054 -9.465924661876642 -8.412924878725958 -8.328061893208103 0 1 0
47113 15417 1 -1.054 -7.458799121502694 -4.9675126216917525 -10.415815425302178 0 1 0
47114 15417 2 0.527 -7.2009195531175525 -5.800809650725699 -10.021670436740656 0 1 0
47412 15516 2 0.527 -9.19802306694545 -9.132117578564106 -7.756027369057347 0 1 0
47703 15613 2 0.527 -9.336851179439092 -3.24357041990082 -6.929074252344837 1 1 0
47621 15586 2 0.527 -10.422514749580015 -4.340279394916644 -9.088623947682509 0 0 0
46983 15373 2 0.527 -6.705794688501946 -3.334807433730002 -10.30059853702682 1 0 0
47087 15408 2 0.527 -3.594983772946189 -6.79496603509493 -8.339664163860409 1 -1 0
47086 15408 1 -1.054 -4.114836313538496 -7.415984648285114 -8.849882891697549 1 -1 0
47133 15423 2 0.527 -7.665585779989932 -5.9039180756248175 -5.7535329112826865 0 0 0
47088 15408 2 0.527 -3.4751398771296595 -8.040807983173137 -9.191375254841752 1 -1 0
47411 15516 2 0.527 -8.67260387331316 -7.889938020319256 -8.443646819252068 0 1 0
47445 15527 2 0.527 1.5352677477531187 -10.578502224473324 -9.991860362400942 0 2 0
47443 15527 1 -1.054 2.158619690736132 -10.011550156490973 -9.537732577583764 0 2 0
45568 14902 1 -1.054 -2.7824829572063647 -8.640341310280242 -6.652619822683085 2 0 0
45570 14902 2 0.527 -3.6529360450637944 -8.655756081751171 -7.050498292223587 2 0 0
47026 15388 1 -1.054 0.15157523927292899 -11.707582217739331 -10.159262199932998 0 0 0
47028 15388 2 0.527 0.3603161882809734 -11.7542281008899 -9.226264952183026 0 0 0
47027 15388 2 0.527 -0.3268213464718935 -12.51696261867894 -10.338907738547352 0 0 0
47887 15675 1 -1.054 -1.7961335811579762 -9.571188421098741 -9.029264068922709 0 0 0
47889 15675 2 0.527 -1.935677110823554 -10.479676302623647 -8.762037011194288 0 0 0
46479 15205 2 0.527 2.358287153778062 -9.220399774751604 -7.675563673801702 1 -2 0
47685 15607 2 0.527 -2.6343451415353694 -5.745553703135531 -6.311123715157036 -1 0 0
47684 15607 2 0.527 -3.0915912547726223 -4.985970635495866 -7.5382566163357305 -1 0 0
47683 15607 1 -1.054 -2.390659362850447 -5.552900554459618 -7.216515628651864 -1 0 0
47888 15675 2 0.527 -1.058596265844069 -9.61071215306984 -9.638122664115661 0 0 0
46477 15205 1 -1.054 2.2129419845169007 -9.013109875312278 -6.752450043903713 1 -2 0
47580 15572 2 0.527 -0.9639566479744652 -4.41986589667167 -7.644351589354442 -1 0 0
47904 15680 2 0.527 1.3227498541997826 -5.021729047118993 -8.796564904361786 0 0 0
47902 15680 1 -1.054 2.068866699519598 -5.594642689744947 -8.61961098300988 0 0 0
46142 15093 2 0.527 1.0240869606002325 -6.535332933129604 -7.417312992901376 2 1 0
47690 15609 2 0.527 4.57482761794383 -7.14277893561435 -9.895789794815503 0 0 0
47903 15680 2 0.527 2.7186691495780018 -5.023033632418817 -8.210643999612529 0 0 0
47691 15609 2 0.527 3.1378730955271332 -7.479908359236538 -9.559038232788764 0 0 0
47419 15519 1 -1.054 3.214864114955603 -3.7357921451928173 -6.654841834773239 1 0 0
46141 15093 1 -1.054 0.3314827185396368 -6.919104698879004 -6.879488585840292 2 1 0
46143 15093 2 0.527 -0.4816449135601178 -6.640803266491585 -7.30092089030629 2 1 0
47216 15451 2 0.527 7.067042490816663 -9.98737851297672 -6.528741988953063 1 -1 0
47689 15609 1 -1.054 4.0361820679170615 -7.786697445247618 -9.43593908470939 0 0 0
47518 15552 1 -1.054 5.13015185568112 -10.142488444546757 -8.967740003799493 0 0 0
47520 15552 2 0.527 5.5376714887094245 -10.314102505476097 -9.816685559317705 0 0 0
47215 15451 1 -1.054 8.020384079056363 -10.064358702557678 -6.490715162322631 1 -1 0
45945 15027 2 0.527 7.381625996249226 -6.8685819353823305 -7.243769028232661 -2 0 0
45943 15027 1 -1.054 7.931201288256142 -7.4359645858840695 -7.784395980425353 -2 0 0
47826 15654 2 0.527 5.287571538114982 -6.581320308298884 -7.572697538022567 0 0 0
47519 15552 2 0.527 4.658015978124846 -9.318895820912298 -9.090279614967072 0 0 0
47824 15654 1 -1.054 5.364978148877321 -6.768703253760995 -6.637213738826089 0 0 0
45944 15027 2 0.527 7.841588859583356 -8.30349144555804 -7.389934336382724 -2 0 0
46835 15324 2 0.527 6.910350964798508 -5.584749689807651 -10.236463433691222 1 0 0
47825 15654 2 0.527 4.653978590827847 -7.383405861325494 -6.455954744671348 0 0 0
47847 15661 2 0.527 10.554907886029266 -2.2877328318200063 -7.011527564548429 0 0 0
47896 15678 1 -1.054 7.733154939273681 -4.1650344823096415 -7.195876742760413 0 0 0
46834 15324 1 -1.054 6.441642138867695 -6.403125085387727 -10.072737751325294 1 0 0
47898 15678 2 0.527 6.789491096938176 -4.3056173403093325 -7.118627437180291 0 0 0
46836 15324 2 0.527 7.032306939677614 -6.910791191074943 -9.516298832710623 1 0 0
46472 15203 2 0.527 16.481389378712358 -5.12347678146328 -11.794167315374676 1 0 0
46437 15191 2 0.527 15.165433381497087 -10.336380991966942 -8.398527869658938 -2 0 0
46473 15203 2 0.527 15.853992340912882 -4.909892772655634 -10.43304627560918 1 0 0
47448 15528 2 0.527 16.448236011054505 -2.3566815472450764 -6.6006172446057905 0 0 0
46536 15224 2 0.527 9.611199771596796 -6.393990134487686 -7.318299899457356 1 1 0
46534 15224 1 -1.054 10.544772791936218 -6.198418364714944 -7.238106059877998 1 1 0
47876 15671 2 0.527 12.33763280130305 -6.083046254420961 -8.686893022870063 0 0 0
47875 15671 1 -1.054 13.128518685758799 -5.794535004759627 -9.142408511099799 0 0 0
47877 15671 2 0.527 13.846771330036828 -6.061653746670952 -8.568826172590231 0 0 0
46535 15224 2 0.527 10.583648069395215 -5.246226864577977 -7.148354291003331 1 1 0
47056 15398 1 -1.054 14.916891821635673 -6.618500828884415 -7.170132914735981 -1 1 0
47058 15398 2 0.527 14.437733483241946 -6.459001690436564 -6.356990820215833 -1 1 0
47870 15669 2 0.527 14.14186686467052 -8.391540363814169 -7.055649739763164 -1 0 0
47869 15669 1 -1.054 13.730195511784146 -9.178975765999198 -6.699690458474396 -1 0 0
46926 15354 2 0.527 10.809906972413154 -9.359938106527771 -6.418469578240026 0 0 0
46925 15354 2 0.527 10.009424300047973 -9.00146051963635 -7.65241316390335 0 0 0
47482 15540 1 -1.054 12.543477204537771 -1.5366993292996822 -9.655715185394435 1 -1 0
47484 15540 2 0.527 11.857789434727666 -1.9065397643887114 -9.099583077339009 1 -1 0
47057 15398 2 0.527 15.799152471699596 -6.289957644203764 -6.997192425871315 -1 1 0
47712 15616 2 0.527 13.819169230696382 -2.9098509703467803 -10.609534207942867 -1 0 0
47710 15616 1 -1.054 14.49572265834736 -3.537802428770008 -10.356183430961924 -1 0 0
47711 15616 2 0.527 14.009967715657636 -4.309408802507007 -10.064805538102805 -1 0 0
47845 15661 1 -1.054 10.72076968514077 -3.2044235092177806 -7.231534625002515 0 0 0
46924 15354 1 -1.054 10.7475189556863 -9.534816254148165 -7.357489327893609 0 0 0
47871 15669 2 0.527 12.797331172226178 -9.065176998336256 -6.881479987210655 -1 0 0
47846 15661 2 0.527 11.448079452118137 -3.4596313820348503 -6.66397350771337 0 0 0
47822 15653 2 0.527 -12.812981436929244 2.19415174090728 -10.012855736748515 1 0 0
47821 15653 1 -1.054 -12.948087817855752 1.3606742404756105 -10.463736499331773 1 0 0
45459 14865 2 0.527 -15.404803890217261 -2.833099321950623 -6.425865285987005 -1 -1 0
47788 15642 1 -1.054 -11.372661848328121 -0.6494947460204222 -9.972048538097123 1 0 0
47823 15653 2 0.527 -12.15088616753238 0.8608188996145443 -10.288088482898042 1 0 0
45885 15007 2 0.527 -14.037709770496813 1.233519662838594 -6.902319383036251 -1 0 0
45883 15007 1 -1.054 -13.938232148695239 2.1653784440737005 -6.707439564857354 -1 0 0
47745 15627 2 0.527 -12.614130230728454 -0.6109901849643142 -7.220972227134276 0 0 0
47743 15627 1 -1.054 -13.57100354348276 -0.5931594286947834 -7.238511443009974 0 0 0
47867 15668 2 0.527 -10.219981057545922 -1.330171563598552 -5.947528994316633 1 0 0
47789 15642 2 0.527 -11.690292213685828 -1.5039921782560597 -10.263899926154256 1 0 0
46205 15114 2 0.527 -14.052418088077568 -0.012523593754274275 -10.239368836754823 2 -1 0
46204 15114 1 -1.054 -14.52907838593716 -0.7433652404411915 -9.845796922052244 2 -1 0
47790 15642 2 0.527 -10.442569469781612 -0.6491399191914213 -10.198237688038333 1 0 0
46695 15277 2 0.527 -16.63218731334355 2.5478919638346076 -8.669115995080393 1 -1 0
46206 15114 2 0.527 -14.5478616407043 -0.5416377019418697 -8.910282962290498 2 -1 0
46332 15156 2 0.527 -12.448753298960119 3.3869108243788855 -6.448636923242846 1 0 0
45884 15007 2 0.527 -14.72491663669924 2.5718835904520145 -7.07092009766999 -1 0 0
47866 15668 1 -1.054 -11.004835288503088 -1.2260845343606763 -6.48549095668085 1 0 0
46982 15373 2 0.527 -5.407860777237193 -2.5564352932082137 -10.263146146228726 1 0 0
46981 15373 1 -1.054 -6.352953131032992 -2.4476386522686866 -10.368958180570765 1 0 0
47015 15384 2 0.527 -5.115912108492094 -3.596324968315891 -6.637766260740201 -1 0 0
47014 15384 1 -1.054 -4.322610965638249 -3.582999098360641 -7.173236560644193 -1 0 0
47105 15414 2 0.527 -7.8469801036413696 -1.2975363112278262 -10.368937343168193 0 0 0
47702 15613 2 0.527 -8.053814872836405 -2.44307196005576 -6.858951545387143 1 1 0
47104 15414 1 -1.054 -8.490229478759947 -0.5900476371493888 -10.412789060813482 0 0 0
47106 15414 2 0.527 -8.126518866711963 0.025905498824904664 -11.048830859344013 0 0 0
47081 15406 2 0.527 -9.417088124428474 3.168070633770547 -7.01353042142392 3 -1 0
47365 15501 1 -1.054 -7.7216397591019055 0.42843267072791297 -8.007559828974289 1 0 0
47884 15674 1 -1.054 -6.647208068655446 1.1837808585041536 -11.801930722292385 0 0 0
47886 15674 2 0.527 -6.467567780202841 1.694101228905517 -11.012288345512607 0 0 0
47080 15406 1 -1.054 -9.534129137466055 2.230281307300905 -6.861590254589878 3 -1 0
47367 15501 2 0.527 -8.516505948353313 0.7339247211048933 -7.5704160104120435 1 0 0
47366 15501 2 0.527 -8.037528714733948 -0.03841317971949535 -8.781188724794417 1 0 0
47706 15614 2 0.527 -6.992029050176611 1.7580769523703998 -8.802675609285735 0 0 0
47885 15674 2 0.527 -5.861075870939247 1.2867609837140461 -12.338236034391606 0 0 0
43860 14332 2 0.527 -3.4917594743038585 0.19104908539159443 -7.436039092932793 1 0 0
44483 14540 2 0.527 -4.922818378023427 2.1139408519890077 -7.920645617447488 0 1 0
47016 15384 2 0.527 -4.244789352226356 -2.67446120771312 -7.464330297095642 -1 0 0
44482 14540 1 -1.054 -4.35055613488467 2.066807151670354 -7.1547951777767205 0 1 0
47779 15639 1 -1.054 -5.976908310659104 -1.1465013928894625 -6.53649353405027 0 0 0
47780 15639 2 0.527 -5.1098525726800705 -0.9337816459213923 -6.881743853282484 0 0 0
47781 15639 2 0.527 -6.582223844368699 -0.643814929215717 -7.0815915473679105 0 0 0
47578 15572 1 -1.054 -0.2818507612155446 -3.7505237463510808 -7.590054931530366 -1 0 0
43858 14332 1 -1.054 -3.4408825447761178 -0.7525967285543764 -7.283801392027542 1 0 0
47757 15631 2 0.527 -0.3841085535586336 -1.8507307491822977 -7.657765985772233 -1 -1 0
47755 15631 1 -1.054 -0.598570767832832 -1.0439325321530213 -7.1894515572267395 -1 -1 0
47756 15631 2 0.527 -1.553347351107055 -0.9893686033975958 -7.230178021814917 -1 -1 0
47857 15665 1 -1.054 0.5360524263798336 1.8365798190226355 -7.502388899703513 0 0 0
47859 15665 2 0.527 0.3294281876251999 1.3468761319402356 -8.298459938709044 0 0 0
45348 14828 2 0.527 2.4096356509497 1.7461838084723924 -7.039480504016805 -2 -1 0
47579 15572 2 0.527 0.01775075097536673 -3.7863356746703523 -6.681654541817223 -1 0 0
47858 15665 2 0.527 0.12534907660068764 1.334589385921202 -6.798427763581178 0 0 0
45346 14828 1 -1.054 3.193457606706915 1.7062438396476367 -6.491518766111579 -2 -1 0
45347 14828 2 0.527 3.2942539646103235 0.7772163540303682 -6.284199541406245 -2 -1 0
47274 15470 2 0.527 1.284834237309614 4.574081897558809 -6.2518716303341915 1 1 0
47897 15678 2 0.527 7.8198585862405094 -3.2403704920879477 -7.42763887786736 0 0 0
47759 15632 2 0.527 8.319753133274308 -0.7830135173877222 -7.520354385163143 0 0 0
47808 15648 2 0.527 10.383902370054875 5.214602767526139 -9.09255629970712 0 0 0
47806 15648 1 -1.054 9.98431664651163 4.545808243452834 -9.648684006789573 0 0 0
47666 15601 2 0.527 5.243307817447289 0.5555890834558914 -6.740987662724522 -1 0 0
47665 15601 1 -1.054 5.326475845166337 -0.3934429756034567 -6.647963077218481 -1 0 0
47758 15632 1 -1.054 7.817691815534617 -1.4412206044470341 -7.039797375568944 0 0 0
47695 15611 1 -1.054 9.555452054281004 0.33727259344671956 -8.236149885015653 0 0 0
47696 15611 2 0.527 9.325335501979644 1.253554229521123 -8.08216089530302 0 0 0
47248 15462 1 -1.054 8.05151144560511 2.890424188007483 -7.431638258421913 -1 -2 0
47249 15462 2 0.527 8.013184482239053 3.7551911729326144 -7.840223041591073 -1 -2 0
47667 15601 2 0.527 6.265303507260381 -0.5612351797858532 -6.729719899044524 -1 0 0
47807 15648 2 0.527 9.04245348125351 4.658471330636664 -9.520491781165074 0 0 0
47760 15632 2 0.527 8.187969356495763 -1.4282751825382412 -6.157207148647054 0 0 0
47447 15528 2 0.527 16.726638687720452 -1.5317734059445474 -7.839131088927416 0 0 0
47446 15528 1 -1.054 16.954938847023733 -1.6069121700504947 -6.9125960405995075 0 0 0
47517 15551 2 0.527 -16.27204088848839 -1.2532200930145019 -10.035300755777694 0 0 0
47483 15540 2 0.527 12.765593122888449 -0.7032575355339176 -9.240654467282395 1 -1 0
47516 15551 2 0.527 16.628266698315194 -2.184489169131966 -10.200758303874032 -1 0 0
46549 15229 1 -1.054 13.278441455532443 0.7255399092771885 -8.486933417473034 -2 0 0
46550 15229 2 0.527 14.08897533363976 0.709439818477839 -8.995861653673833 -2 0 0
47515 15551 1 -1.054 16.911088232471403 -1.3949139991996842 -9.739438975872412 -1 0 0
46551 15229 2 0.527 12.630606220025264 1.1070298055117775 -9.079392366658249 -2 0 0
47179 15439 1 -1.054 16.06314344257566 1.3813973076637849 -9.66270464171196 -2 -1 0
46893 15343 2 0.527 13.767902679372487 -4.258372068962705 -7.614308493585512 1 -1 0
47585 15574 2 0.527 10.774056131800979 -0.24148958521905922 -6.960706489675469 0 0 0
47697 15611 2 0.527 10.126461441535303 0.3590326755052229 -9.004075459590961 0 0 0
47586 15574 2 0.527 12.247347135937597 0.001318147978485583 -6.710999653003454 0 0 0
47461 15533 1 -1.054 14.274467694197337 2.2714276722209386 -6.538220571620043 0 -1 0
47180 15439 2 0.527 15.858146104072034 1.700258969607084 -10.541645352240295 -2 -1 0
47514 15550 2 0.527 11.052656323020317 2.8556482470641344 -9.927258278902185 -1 -1 0
47512 15550 1 -1.054 11.278077815973578 1.926063719886539 -9.963245445546768 -1 -1 0
47462 15533 2 0.527 15.19765330852825 2.0393728312483104 -6.437666218525655 0 -1 0
47513 15550 2 0.527 11.044760422068398 1.656763670750452 -10.851655989187684 -1 -1 0
47181 15439 2 0.527 16.436019621802092 0.5112049257618754 -9.804007102997746 -2 -1 0
47403 15513 2 0.527 11.484426971871804 3.0175656074749146 -6.193345148803908 1 -1 0
46892 15343 2 0.527 13.403351312199083 -2.799863757628912 -7.43611961212974 1 -1 0
46891 15343 1 -1.054 13.715951543515985 -3.5661815952095224 -6.955214017332385 1 -1 0
47584 15574 1 -1.054 11.535248723105921 -0.6054917027157449 -6.508687451717402 0 0 0
47463 15533 2 0.527 13.949621434637814 1.6762446268839177 -7.21384269368606 0 -1 0
46693 15277 1 -1.054 -16.163775354337535 3.0615126455751116 -8.011075511471075 1 -1 0
46331 15156 2 0.527 -12.335890496202664 4.60687455461111 -7.3379320578927905 1 0 0
46330 15156 1 -1.054 -11.865424113314893 4.114182682908719 -6.665512495813669 1 0 0
47161 15433 1 -1.054 -14.1703474024582 5.018805851981529 -8.349390566396039 1 -1 0
46801 15313 1 -1.054 -14.766283682797383 7.260666388400184 -6.5810599432718 -1 -1 0
46802 15313 2 0.527 -14.408415724359227 7.777030357811241 -7.303231173999268 -1 -1 0
47163 15433 2 0.527 -14.831950066606032 4.327177354314369 -8.362317916586884 1 -1 0
46894 15344 1 -1.054 -11.740415136898028 8.011151082958815 -7.57781788086784 2 -1 0
46895 15344 2 0.527 -11.53150946571754 8.879155367583525 -7.232623544676843 2 -1 0
46315 15151 1 -1.054 -13.869070657431498 8.774244136513593 -9.168976955440895 1 -1 0
46896 15344 2 0.527 -11.961359048610673 7.492135258408772 -6.804488338777234 2 -1 0
46316 15151 2 0.527 -13.553553972435092 9.659306838619257 -9.351591965779427 1 -1 0
46803 15313 2 0.527 -15.70927881883366 7.241185837754454 -6.744195065040992 -1 -1 0
47628 15588 2 0.527 -15.78519990539063 5.9883825444525325 -9.29500340451796 0 -1 0
47626 15588 1 -1.054 -16.221074211639042 6.712308492891448 -9.744645543487511 0 -1 0
47627 15588 2 0.527 -15.644285632388053 7.463409919844721 -9.605379931329441 0 -1 0
46317 15151 2 0.527 -13.154330329540155 8.359591733815588 -8.68581537673151 1 -1 0
47162 15433 2 0.527 -14.298831890539008 5.458135085391456 -7.508727065092975 1 -1 0
47704 15614 1 -1.054 -6.415098226175145 2.4850558377050267 -9.03695335446827 0 0 0
46202 15113 2 0.527 -10.464982342482573 7.024866115081122 -8.542117450071014 -1 0 0
46203 15113 2 0.527 -9.694639992114004 6.516538647651356 -9.742147994921043 -1 0 0
46201 15113 1 -1.054 -9.718927216606446 6.4770302461315445 -8.786071789701007 -1 0 0
46339 15159 1 -1.054 -7.752536645519356 4.487599336280444 -7.5554388386030835 0 -2 0
46340 15159 2 0.527 -7.899479287474556 4.869816967817911 -6.690250143424188 0 -2 0
47097 15411 2 0.527 -5.4726702043688915 7.847601308463629 -7.555031766356454 -1 -1 0
46341 15159 2 0.527 -8.184400230197868 5.09048320810494 -8.160631712873814 0 -2 0
47326 15488 1 -1.054 -8.515153831106716 7.9397187301089795 -6.714119282293471 1 0 0
47327 15488 2 0.527 -8.828752072036265 7.432859152213068 -7.463109435887851 1 0 0
46716 15284 2 0.527 -8.754128137991202 9.809915833009699 -7.568614012434809 0 0 0
47659 15599 1 -1.054 -8.415013423698154 10.806792556046641 -10.725763272056485 0 -1 0
47660 15599 2 0.527 -7.527614367092016 11.165325879283436 -10.71121388794163 0 -1 0
46016 15051 2 0.527 -5.430582310727696 11.798772733709878 -11.331966831237153 1 -2 0
47208 15448 2 0.527 -2.5971160318557067 8.837169026993601 -7.031879011779676 1 -1 0
46017 15051 2 0.527 -5.239853442476005 10.639991792015527 -10.376587379103261 1 -2 0
47705 15614 2 0.527 -6.826843222808103 3.2545218575695642 -8.643734713890096 0 0 0
47095 15411 1 -1.054 -6.049147182996838 7.155005228486941 -7.877859056183844 -1 -1 0
47674 15604 1 -1.054 -3.392870950642548 4.595929202958972 -7.629847040320656 0 0 0
47207 15448 2 0.527 -2.9704907375287815 7.5918948563807485 -7.807624100428137 1 -1 0
46596 15244 2 0.527 0.09433005973802913 6.124267112229017 -7.966822602346761 1 -1 0
46594 15244 1 -1.054 0.34084064874469316 6.81163061643444 -8.585690758876694 1 -1 0
46595 15244 2 0.527 -0.48729108982355823 7.092016637214369 -8.975323625019291 1 -1 0
47676 15604 2 0.527 -3.316324468300146 4.9465632300300655 -6.742475152500015 0 0 0
47272 15470 1 -1.054 0.44349769132339123 4.6634440497080165 -6.699534073037853 1 1 0
47647 15595 1 -1.054 -2.42115753196941 6.712507720853587 -9.411412655631569 0 0 0
47648 15595 2 0.527 -2.861352538725645 6.003074146548538 -8.943262225295426 0 0 0
47675 15604 2 0.527 -3.6623225124299106 3.6858428771386547 -7.505865500436093 0 0 0
47206 15448 1 -1.054 -3.08459605073002 8.01676416382841 -6.957506046867311 1 -1 0
47872 15670 1 -1.054 2.61695189668102 7.712645642466332 -6.834115222547016 0 0 0
47614 15584 1 -1.054 -3.7006949312104616 9.62216866833483 -9.501769468461793 1 0 0
47649 15595 2 0.527 -2.1958099316864264 6.3353122428323925 -10.261809286552893 0 0 0
47616 15584 2 0.527 -3.586315725080735 8.671830018134333 -9.499255376806259 1 0 0
47874 15670 2 0.527 1.974667680241621 7.409932337118004 -7.476041518940283 0 0 0
47499 15545 2 0.527 -0.06373246735889398 9.016819537053145 -6.271598216286496 0 0 0
47873 15670 2 0.527 3.463858294702117 7.474727928251069 -7.211446297565895 0 0 0
46552 15230 1 -1.054 7.277113813435498 5.374824396565653 -8.548475952322656 -1 0 0
46554 15230 2 0.527 6.67626832185335 4.974666338408793 -7.919911927993809 -1 0 0
47645 15594 2 0.527 5.968881533985502 7.327019031203314 -6.608521070243127 0 -1 0
47644 15594 1 -1.054 5.42762553213573 7.347275752467061 -7.397739277200667 0 -1 0
47177 15438 2 0.527 5.18176388077529 3.4006055757355225 -6.031881556977834 -1 1 0