LAMMPS data file via write_data, version 23 Jun 2022, timestep = 1000000

1578 atoms
4 atom types
668 bonds
1 bond types
334 angles
1 angle types

-17.041183502137486 17.041183502137486 xlo xhi
-16.99176666040339 16.99176666040339 ylo yhi
-26 26 zlo zhi

Masses

1 15.9994
2 1.008
3 22.98977
4 35.45

Pair Coeffs # lj/cut/tip4p/long

1 0.18481 3.165
2 0 0
3 0.10755 2.31
4 0.10038 4.3

Bond Coeffs # harmonic

1 0 0.9572

Angle Coeffs # harmonic

1 0 104.52

Atoms # full

46697 15278 2 0.527 -12.064502843023897 -14.987840289200562 -7.557263996354023 1 -1 0
46696 15278 1 -1.054 -11.28409027940294 -15.31014335602288 -8.008161476831566 1 -1 0
46698 15278 2 0.527 -11.195856095134816 -16.217492900101387 -7.7163309740062 1 -1 0
47795 15644 2 0.527 -11.02009877423425 -14.797388198151356 -9.649664229102118 0 0 0
47344 15494 1 -1.054 -12.565131739926878 -12.472056244544959 -9.299425054934595 1 1 0
47345 15494 2 0.527 -12.393857471923033 -11.617670648636496 -9.695553949404102 1 1 0
47346 15494 2 0.527 -12.17429667129828 -13.100657075172096 -9.906334175042609 1 1 0
47794 15644 1 -1.054 -11.01938236801393 -14.453976189074508 -10.543139889438217 0 0 0
46551 15229 2 0.527 -14.017001652360737 -16.73517808258286 -7.887635108952943 -1 1 0
47569 15569 1 -1.054 -14.684486985855742 -14.50444147934412 -10.411227872346773 1 1 0
47570 15569 2 0.527 -14.11039030490154 -13.985453589084308 -9.847938424904482 1 1 0
47571 15569 2 0.527 -14.165283486981316 -15.27620830429535 -10.637135844698857 1 1 0
46981 15373 1 -1.054 -11.317445502466372 -11.810417185695988 -6.69685329950935 1 0 0
47870 15669 2 0.527 -16.14837986761102 -14.339209036841458 -9.013098341000305 0 0 0
46983 15373 2 0.527 -11.7821447296873 -12.326943589269773 -7.355251344117312 1 0 0
47776 15638 1 -1.054 -14.117108795980863 -14.448813947779596 -6.89024850406784 0 0 0
43672 14270 1 -1.054 -16.786262179186128 -11.976189956703497 -6.975367767344002 1 -2 0
43673 14270 2 0.527 -16.67817120650023 -12.794254008064385 -7.46046553544571 1 -2 0
46982 15373 2 0.527 -11.56647497401956 -10.905014454192674 -6.882498305062341 1 0 0
44385 14507 2 0.527 -12.04521657222719 -15.895606635354099 -10.906924615222268 0 2 0
47869 15669 1 -1.054 -16.694899486590675 -14.266985419140855 -8.230582523493082 0 0 0
44383 14507 1 -1.054 -12.707793918567404 -16.541145520984834 -11.152908232146762 0 2 0
44384 14507 2 0.527 -12.787708185688192 -16.45305372387796 -12.102689800584841 0 2 0
47778 15638 2 0.527 -14.976238846176264 -14.712997365738582 -7.219382776837081 0 0 0
47796 15644 2 0.527 -10.118493610128384 -14.164984052610528 -10.688443152746578 0 0 0
47447 15528 2 0.527 -8.804452669240023 -12.009316533331148 -11.043902086824744 1 0 0
47448 15528 2 0.527 -7.882114781516824 -13.092021920607053 -10.52530706493387 1 0 0
47446 15528 1 -1.054 -8.736373155733414 -12.68813329621703 -10.37248250167335 1 0 0
46829 15322 2 0.527 -9.380257414319008 -11.81788257128542 -7.305833890725883 0 0 0
47810 15649 2 0.527 -6.2531089035302365 -14.694233462251333 -9.491401305108592 0 0 0
47811 15649 2 0.527 -7.08760270068658 -15.224266241324342 -10.637954152099363 0 0 0
47809 15649 1 -1.054 -6.649717254714901 -14.433639010066155 -10.322682853213548 0 0 0
47149 15429 1 -1.054 -5.465089239156011 -14.854298857826613 -7.853342265385073 1 0 0
47661 15599 2 0.527 -6.802935704000499 -11.853970920343416 -7.110728789350857 0 0 0
47151 15429 2 0.527 -5.67478153164142 -15.463957710897931 -7.145826870601093 1 0 0
47659 15599 1 -1.054 -5.8935644614180385 -11.763058325120857 -6.826112136363364 0 0 0
47653 15597 1 -1.054 -8.625808244867684 -14.924897224186497 -6.903452048667854 0 1 0
46828 15322 1 -1.054 -8.602942834060263 -11.570577194867097 -7.806688906330739 0 0 0
47654 15597 2 0.527 -9.564772534641683 -14.848264437335477 -7.072878658239672 0 1 0
47655 15597 2 0.527 -8.27175629365229 -14.062249572445344 -7.119593086895369 0 1 0
46830 15322 2 0.527 -8.741066160027316 -11.95801840363968 -8.671005344992938 0 0 0
47660 15599 2 0.527 -5.627984997334138 -10.899867330316615 -7.14327919129263 0 0 0
47615 15584 2 0.527 -3.621259559158352 -16.1920864756207 -7.773825636890274 1 1 0
47088 15408 2 0.527 -3.8918510411001526 -11.98954409284998 -8.011993618296119 1 -1 0
47150 15429 2 0.527 -5.135200123966716 -14.073959232875904 -7.407838518401745 1 0 0
47087 15408 2 0.527 -3.3153443120420736 -12.299040913041592 -6.646803465809406 1 -1 0
47086 15408 1 -1.054 -3.1153294343978977 -12.347347665955432 -7.581625962995274 1 -1 0
47005 15381 1 -1.054 2.6077970246385815 -11.984329376285766 -7.292995771939167 -1 -2 0
47006 15381 2 0.527 1.6817423224679595 -11.795684999933815 -7.444875058301509 -1 -2 0
47682 15606 2 0.527 2.3625514878697755 -13.992874861930192 -7.170243294609835 0 1 0
47646 15594 2 0.527 -1.048944829090009 -12.15954631478559 -7.169142663015602 0 0 0
47614 15584 1 -1.054 -2.936218500675431 -16.21656942870502 -7.105732605371737 1 1 0
47680 15606 1 -1.054 2.2910988615475945 -14.86570432238849 -6.78385496613909 0 1 0
47644 15594 1 -1.054 -0.31278685991847094 -11.782244157227666 -6.687532525512789 0 0 0
46714 15284 1 -1.054 -0.431389140495508 -15.905438145051615 -7.857248783041596 0 1 0
46715 15284 2 0.527 -0.6019586757037241 -15.224930957342364 -8.508435656963997 0 1 0
46716 15284 2 0.527 -1.277288003224598 -16.048944739757868 -7.43287745093777 0 1 0
47645 15594 2 0.527 -0.2575700675617814 -10.879835440124413 -7.001925938142639 0 0 0
47681 15606 2 0.527 1.3501724676144646 -15.03907181961596 -6.754965125654247 0 1 0
46059 15065 2 0.527 3.737957245609902 -15.95379479838786 -7.750831508877168 1 2 0
46058 15065 2 0.527 3.6951349603412793 -16.77388572854005 -9.022645076065647 1 2 0
46057 15065 1 -1.054 4.289510775498403 -16.270704028503463 -8.466087482807643 1 2 0
45901 15013 1 -1.054 5.363549347071323 -12.131039540444329 -6.7040682095427515 -1 1 0
47767 15635 1 -1.054 6.2704911721926395 -14.403828650048997 -7.758843511958705 0 1 0
47768 15635 2 0.527 5.608544027554821 -15.045858399907381 -8.015471646015023 0 1 0
45902 15013 2 0.527 5.818113319699358 -12.908667673120556 -7.02794465050457 -1 1 0
47578 15572 1 -1.054 8.604523583056675 -12.23471869132794 -7.680236246340438 -1 0 0
47769 15635 2 0.527 6.979374323369282 -14.926663394360151 -7.38419215464698 0 1 0
45903 15013 2 0.527 4.453077785092186 -12.256446814914087 -6.97154586827788 -1 1 0
47580 15572 2 0.527 7.932516606147227 -12.823235752840162 -8.024164821004316 -1 0 0
47825 15654 2 0.527 8.870275051982045 -10.415511333839286 -7.449379859945805 0 0 0
47477 15538 2 0.527 10.085176129594483 -16.969883512155942 -9.275788714544573 0 1 0
47638 15592 1 -1.054 8.476225473375932 -15.732119966744264 -6.785277818248501 -1 0 0
47639 15592 2 0.527 9.292724165768158 -15.665414637348224 -7.280366131524603 -1 0 0
47579 15572 2 0.527 8.397625039072517 -12.152171132137708 -6.749315559350833 -1 0 0
47640 15592 2 0.527 8.153329334526946 -16.61353021715697 -6.972563017752051 -1 0 0
43674 14270 2 0.527 16.927866222176775 -11.365448075384895 -7.6138243628488835 0 -2 0
46821 15319 2 0.527 10.462030676333107 -12.187487029642469 -7.2087808319679185 -1 1 0
47871 15669 2 0.527 16.657772298849757 -14.8652359699715 -8.391441184310377 -1 0 0
47077 15405 1 -1.054 10.843775747584667 -15.667291477926398 -8.218914120981706 0 0 0
47078 15405 2 0.527 11.4482312704528 -15.073280599475734 -8.663905804923054 0 0 0
46819 15319 1 -1.054 11.2369982503781 -12.334711021924962 -6.666577742130063 -1 1 0
47026 15388 1 -1.054 15.19409385009581 -15.903197881944818 -8.447399625173212 -1 0 0
47027 15388 2 0.527 14.695599532247346 -15.65288012960962 -7.669532578250527 -1 0 0
47311 15483 1 -1.054 13.829193655996022 -12.089699227802452 -7.925061966095178 0 1 0
47384 15507 2 0.527 14.05599356415802 -16.26970244583033 -10.217830425375341 -1 1 0
47383 15507 1 -1.054 13.477480401997568 -16.263509746730275 -10.980402119801305 -1 1 0
47602 15580 1 -1.054 13.220330644294013 -14.661261875848707 -6.672567125182468 -1 1 0
47818 15652 1 -1.054 12.353275634251617 -13.862965249027683 -9.71900896415663 -1 0 0
47820 15652 2 0.527 13.080464747136158 -13.259404848153986 -9.566884183043934 -1 0 0
47312 15483 2 0.527 14.370806539730655 -11.312953296476334 -8.064899709912014 0 1 0
46820 15319 2 0.527 11.930984222140165 -12.544130314893568 -7.29168341682573 -1 1 0
47604 15580 2 0.527 13.170709830709443 -14.184613235342379 -7.50116608093885 -1 1 0
47819 15652 2 0.527 12.646308847875655 -14.413628406150323 -10.44504833078504 -1 0 0
47313 15483 2 0.527 14.19167028413286 -12.49650439128599 -7.138070853744098 0 1 0
47028 15388 2 0.527 15.614616249910029 -16.728935285885996 -8.20749836070272 -1 0 0
47079 15405 2 0.527 11.397980808403902 -16.172045235327282 -7.623670803176336 0 0 0
46201 15113 1 -1.054 -12.100936372815234 -9.029882669975368 -7.347512614208976 -1 0 0
46202 15113 2 0.527 -11.909047494359685 -8.222411003685552 -6.870648170822769 -1 0 0
47549 15562 2 0.527 -15.617913364089901 -3.610970746682053 -6.614974979003414 1 1 0
47548 15562 1 -1.054 -14.665652228955647 -3.702347044319684 -6.582337128247037 1 1 0
46203 15113 2 0.527 -13.020797537205203 -9.210231350822033 -7.1536976017882115 -1 0 0
47788 15642 1 -1.054 -16.952503924824843 -8.18098941032279 -7.202187364451637 1 0 0
47745 15627 2 0.527 -15.480125874111415 -9.12980153316493 -6.958878530961677 0 0 0
47550 15562 2 0.527 -14.509319711799195 -4.636533232292588 -6.720484018800205 1 1 0
47743 15627 1 -1.054 -14.73055338210919 -9.56538498327814 -6.5531216356250654 0 0 0
47619 15585 2 0.527 -11.032857926440927 -5.75199427280088 -7.073766336041015 0 0 0
47787 15641 2 0.527 -8.322368515584394 -7.833804930501553 -8.334717251943294 0 1 0
47786 15641 2 0.527 -6.852465846589095 -7.776073559185877 -8.692414263519414 0 1 0
47785 15641 1 -1.054 -7.666912989893007 -7.2770867379319215 -8.755044914403014 0 1 0
46279 15139 1 -1.054 -5.5768343474333095 -8.996782586361883 -7.543601435414224 0 0 0
45569 14902 2 0.527 -5.7095135162941695 -6.756966055446291 -7.5524297032618675 2 0 0
46141 15093 1 -1.054 -7.574812206795216 -4.655933148685099 -7.86582025119613 2 1 0
46143 15093 2 0.527 -8.31576592882177 -4.215704615072976 -7.449383892851516 2 1 0
45568 14902 1 -1.054 -5.243996823243404 -6.158984065615382 -6.967669964851259 2 0 0
45570 14902 2 0.527 -5.79406364472122 -5.376204365659251 -6.93741741724536 2 0 0
46142 15093 2 0.527 -7.872538716909776 -5.556398653745797 -7.995263083771517 2 1 0
46281 15139 2 0.527 -4.722682185726044 -8.56931413269012 -7.480949044032901 0 0 0
47703 15613 2 0.527 -5.4498152557097885 -4.550324058213998 -11.012817747852527 1 1 0
47701 15613 1 -1.054 -5.1920208686905305 -5.294088695872828 -10.468219555118996 1 1 0
47702 15613 2 0.527 -5.971059436337275 -5.492526718342165 -9.948651049250875 1 1 0
46229 15122 2 0.527 -3.619802594828879 -5.225114288702053 -9.499252869687373 1 1 0
45654 14930 2 0.527 -8.665400234999119 -9.852201383655002 -6.852526208026745 1 0 0
46280 15139 2 0.527 -5.921157968455086 -8.977025197433282 -6.650694765429721 0 0 0
45652 14930 1 -1.054 -8.938517067391018 -8.997610545408225 -6.518887913426814 1 0 0
47410 15516 1 -1.054 -10.138684708184641 -3.9601833193792166 -6.970521103341364 0 1 0
46230 15122 2 0.527 -3.734862265193585 -5.561208279903223 -8.0276266423335 1 1 0
47846 15661 2 0.527 2.4207057847476547 -8.727173081359766 -7.128738897560232 0 0 0
41900 13679 2 0.527 -2.4188596343257154 -7.946924863173797 -7.383208771475101 -2 2 0
41899 13679 1 -1.054 -3.1108677937779623 -8.170798849155242 -6.760924141159174 -2 2 0
46477 15205 1 -1.054 0.34563033371259694 -8.91106646211453 -7.3080062694128785 1 -2 0
47518 15552 1 -1.054 2.422544011838104 -4.251107012020337 -7.0886056409715215 0 0 0
47519 15552 2 0.527 2.4996421835191955 -5.0873421702819135 -6.629259575231972 0 0 0
47520 15552 2 0.527 3.1415107906921675 -4.2572154830097535 -7.720491747032216 0 0 0
46478 15205 2 0.527 -0.022057916667761884 -8.030347805411777 -7.3812599316480645 1 -2 0
47487 15541 2 0.527 0.14889512852124295 -5.538222179451909 -7.632381540222195 1 -1 0
47485 15541 1 -1.054 -0.6799576676085276 -6.009058623094583 -7.5455058317053085 1 -1 0
47845 15661 1 -1.054 3.259780416889756 -8.973460791492707 -6.739472599527659 0 0 0
46228 15122 1 -1.054 -3.1601653119661526 -5.136305804484524 -8.664345964972064 1 1 0
47486 15541 2 0.527 -1.2376964222755267 -5.64162928782719 -8.231184018541462 1 -1 0
47824 15654 1 -1.054 9.07533314746837 -9.526702690405214 -7.159200630832647 0 0 0
45944 15027 2 0.527 8.23839575288539 -7.891265011601203 -7.554991443787944 -2 0 0
45943 15027 1 -1.054 7.836642831150447 -7.024433448312291 -7.496474547464628 -2 0 0
47689 15609 1 -1.054 5.186814620858353 -6.986695957834212 -6.771174628500622 0 0 0
45945 15027 2 0.527 8.2586420937345 -6.614825611820872 -6.741250300386344 -2 0 0
47691 15609 2 0.527 6.02216433411714 -7.290957928423113 -7.125928533746059 0 0 0
47642 15593 2 0.527 9.460672921171762 -5.888565592494448 -8.113578013530805 0 0 0
47529 15555 2 0.527 8.77801792046965 -4.106489275161309 -6.7730652316408895 -1 1 0
47690 15609 2 0.527 4.657017942764167 -7.779857931297474 -6.690895888976577 0 0 0
46924 15354 1 -1.054 5.459220417598937 -4.007980590298999 -7.360050349088427 0 0 0
47847 15661 2 0.527 3.528718580217199 -9.754440789036334 -7.2231716654614395 0 0 0
46926 15354 2 0.527 5.386859060855509 -4.962415269094402 -7.3529910811967465 0 0 0
47641 15593 1 -1.054 9.979990651361952 -5.195798332658707 -7.705393754345203 0 0 0
47527 15555 1 -1.054 8.145358583760649 -3.411798319352958 -6.590360547057237 -1 1 0
47528 15555 2 0.527 7.4148835642588224 -3.590636859320184 -7.182520313180147 -1 1 0
47672 15603 2 0.527 16.504872270180346 -9.345479261726565 -8.27599288148994 -1 0 0
47673 15603 2 0.527 16.052410336033603 -10.14114388431014 -9.481846185694078 -1 0 0
47671 15603 1 -1.054 16.11347797224733 -10.182018132101353 -8.527472984090641 -1 0 0
47790 15642 2 0.527 16.83728730172325 -7.27216357938489 -7.133870686153829 0 0 0
47040 15392 2 0.527 16.25611757456828 -4.861862373600436 -6.914415067278314 0 0 0
47643 15593 2 0.527 10.609801484978512 -5.660833834886901 -7.154654351515207 0 0 0
47665 15601 1 -1.054 12.44622254813016 -9.27477519698628 -7.335692773119148 -1 0 0
47016 15384 2 0.527 10.803241993205916 -3.6533966701812575 -8.016270697618358 -1 0 0
47215 15451 1 -1.054 12.05935708772403 -6.562377945825669 -6.6666831903442505 1 -1 0
47216 15451 2 0.527 11.957874343863603 -7.3172546909762985 -7.246417034247314 1 -1 0
47667 15601 2 0.527 12.572405339893637 -9.971547028421625 -7.979754087990673 -1 0 0
47038 15392 1 -1.054 16.016111160091597 -5.724640743079628 -6.576417812505927 0 0 0
47058 15398 2 0.527 13.96340752743002 -3.5461422899486315 -7.474991705615746 -1 1 0
47666 15601 2 0.527 12.152845366873194 -9.728545924365394 -6.545594869721552 -1 0 0
47057 15398 2 0.527 12.747184213435437 -4.208043754297968 -6.862959565304182 -1 1 0
47056 15398 1 -1.054 13.651456782001667 -3.9602126483548057 -6.670336957510126 -1 1 0
47272 15470 1 -1.054 -13.877244739382126 -1.0978468953022054 -7.390571201461893 1 1 0
47274 15470 2 0.527 -14.026276816119282 -2.042198364849144 -7.34344915065809 1 1 0
47620 15586 1 -1.054 -15.526975758220003 0.3047022935638805 -9.264756263147868 0 0 0
47622 15586 2 0.527 -14.78381617922408 0.1504947973616305 -9.847992335554528 0 0 0
45169 14769 1 -1.054 -13.21299411384877 0.269729590626114 -10.7618946904353 2 0 0
45170 14769 2 0.527 -13.281678956623647 1.2163828150220093 -10.88584117304236 2 0 0
45171 14769 2 0.527 -12.50044858923884 0.16123481964567438 -10.132026701126469 2 0 0
47365 15501 1 -1.054 -11.314187746987155 -0.6462767938517593 -6.803075053457624 1 0 0
47367 15501 2 0.527 -12.177109819835321 -0.8030489697215395 -7.186501164531629 1 0 0
46694 15277 2 0.527 -10.857114928439755 2.2605392062215106 -6.885131167548584 1 -1 0
46693 15277 1 -1.054 -10.388643702069844 1.9834856767388778 -7.672536269683113 1 -1 0
47366 15501 2 0.527 -11.14469479321003 0.28179798884254514 -6.9648808647539395 1 0 0
47621 15586 2 0.527 -15.4140918215145 -0.3317527725084229 -8.558774324074955 0 0 0
47696 15611 2 0.527 -16.314687126656185 2.085721043475677 -7.98352316952615 1 0 0
47697 15611 2 0.527 -17.036076203138855 2.7068354061394033 -6.8063693293091605 1 0 0
47106 15414 2 0.527 -14.758244664226222 3.303184424887842 -11.33222841409025 0 0 0
47104 15414 1 -1.054 -13.926489599173703 2.9139148462041367 -11.602203941340981 0 0 0
47412 15516 2 0.527 -10.275118492932762 -3.08905473006314 -7.343017890175574 0 1 0
47105 15414 2 0.527 -14.152361644586973 2.358826345000803 -12.348588597735969 0 0 0
46435 15191 1 -1.054 -14.327552598567415 2.82510372508655 -6.882953846982749 -1 0 0
46436 15191 2 0.527 -13.388606262185558 2.841152041710056 -7.068303339143995 -1 0 0
47273 15470 2 0.527 -14.14177985269281 -0.7699601480554604 -6.531069678390865 1 1 0
46695 15277 2 0.527 -9.52361774430804 1.7214458254164642 -7.357421892547266 1 -1 0
47705 15614 2 0.527 -6.217649651388145 -1.6205376878934137 -9.52877772809556 0 0 0
47704 15614 1 -1.054 -5.799851170508945 -2.399409341845301 -9.896249270310786 0 0 0
47706 15614 2 0.527 -6.2342678607620154 -3.1328196138778908 -9.460791570355141 0 0 0
47626 15588 1 -1.054 -8.357983425695654 -1.3450262049966062 -7.332030686137045 0 -1 0
47628 15588 2 0.527 -8.81976302316983 -1.0608509553691794 -6.54321152313503 0 -1 0
47627 15588 2 0.527 -7.487003522435747 -1.5947590266184806 -7.023394660414845 0 -1 0
47244 15460 2 0.527 -8.345768081025534 -0.5978465942637665 -8.884092409984671 1 1 0
47242 15460 1 -1.054 -8.086954505031436 -0.34238258031943447 -9.769520945898282 1 1 0
46473 15203 2 0.527 -7.049227497240687 1.3292313340559945 -9.612957728887704 1 0 0
47416 15518 1 -1.054 -5.638377395544808 -0.9395843121390244 -6.532908598372206 1 0 0
47417 15518 2 0.527 -5.0186983641559975 -1.5848376273417495 -6.873316791285336 1 0 0
46835 15324 2 0.527 -3.633717004534686 -2.378877024379287 -9.560242919607264 1 0 0
46339 15159 1 -1.054 -7.809691629470834 1.7565837777695135 -6.843053311972439 0 -2 0
47243 15460 2 0.527 -8.459170654660612 -1.0204239232465597 -10.333388242055808 1 1 0
46341 15159 2 0.527 -7.378555884245944 1.6422647447567533 -7.689979174734982 0 -2 0
46472 15203 2 0.527 -5.784380711597221 1.4286655121805003 -8.787022044825264 1 0 0
46471 15203 1 -1.054 -6.517877525831999 1.9495920322499039 -9.113905115613631 1 0 0
47418 15518 2 0.527 -5.337882492981719 -0.10509683290005971 -6.892858484931106 1 0 0
47179 15439 1 -1.054 -3.973096724813388 0.6885734080090677 -8.558745363829493 -1 -1 0
47180 15439 2 0.527 -3.602283812453707 -0.1914854433704499 -8.623759505401758 -1 -1 0
47683 15607 1 -1.054 2.520504628345846 -1.4687968496085917 -7.780884383591848 -1 0 0
47684 15607 2 0.527 2.446294301215445 -2.203701439884765 -7.17208206547337 -1 0 0
47685 15607 2 0.527 3.3113336168757326 -1.6552660281030187 -8.286900874285859 -1 0 0
46834 15324 1 -1.054 -3.0088168373443076 -2.175886858206661 -8.864164150390012 1 0 0
46836 15324 2 0.527 -2.742317625561542 -3.0301090524508076 -8.524294266612321 1 0 0
46534 15224 1 -1.054 -0.6449817574556279 -1.1564917025712218 -6.691903610291038 1 1 0
47420 15519 2 0.527 1.3947534171716571 0.06005529646366691 -8.536070702726638 1 0 0
45803 14980 2 0.527 -0.7505029234781443 1.256907139322438 -7.6909429339744 1 1 0
47808 15648 2 0.527 2.677453183076386 1.7344675968680654 -7.298180298689319 0 0 0
47181 15439 2 0.527 -3.223952136313886 1.2506408562559301 -8.3610220407738 -1 -1 0
47419 15519 1 -1.054 0.9870194360513069 0.9156351394467379 -8.670119806595523 1 0 0
47421 15519 2 0.527 1.394458517675022 1.2533277136236365 -9.46773409517254 1 0 0
45802 14980 1 -1.054 -1.281149524601564 1.7697555359369395 -7.081326193095585 1 1 0
47807 15648 2 0.527 3.103647145320487 3.0594094442819535 -6.702545764814669 0 0 0
46536 15224 2 0.527 -1.3786030218573828 -1.2586476923115704 -7.298199868140146 1 1 0
46535 15224 2 0.527 -0.12591300077450057 -1.9524539943545165 -6.806982098653926 1 1 0
47176 15438 1 -1.054 7.474256573773769 -0.599635602180893 -7.738858462894448 -1 1 0
47177 15438 2 0.527 8.079177836488158 -1.2243686200569577 -7.338846167228773 -1 1 0
47178 15438 2 0.527 6.741790324952734 -0.5480030623940024 -7.12480803337141 -1 1 0
47758 15632 1 -1.054 4.905045513737091 -1.7619787842058603 -9.253259277480627 0 0 0
47759 15632 2 0.527 5.352441953766805 -2.479440564806775 -8.804575075345008 0 0 0
47760 15632 2 0.527 5.111413284704492 -0.9866528091512831 -8.731235695683495 0 0 0
47493 15543 2 0.527 8.406362131814248 0.7848807741318083 -7.39814658327485 -1 0 0
45347 14828 2 0.527 9.509989719018671 -0.9460095369093228 -10.337452516911284 -2 -1 0
47492 15543 2 0.527 9.783170889993368 1.3151359150377364 -7.058852965257245 -1 0 0
47491 15543 1 -1.054 8.884632748359126 1.5969065578005708 -7.230509274876818 -1 0 0
45348 14828 2 0.527 8.382593293110535 -1.5952845262593998 -9.563298733709527 -2 -1 0
45346 14828 1 -1.054 9.282910641562673 -1.7404194567097044 -9.8541528017634 -2 -1 0
45958 15032 1 -1.054 16.804863580874606 -3.219626982362035 -7.500027015357567 -1 1 0
45960 15032 2 0.527 16.34307139942371 -3.24989582498762 -8.337917363643486 -1 1 0
47658 15598 2 0.527 16.979406946591908 0.9623492312348453 -9.729514861396453 0 0 0
47657 15598 2 0.527 16.44790484359988 0.7680086520965757 -11.133662022091722 0 0 0
46782 15306 2 0.527 16.70792897160471 0.28692139106783526 -6.782040427401118 0 1 0
46920 15352 2 0.527 16.972143158578007 3.242800431783976 -10.728595600327594 -1 0 0
46780 15306 1 -1.054 16.425170944269915 -0.5918674173457037 -6.529035508689577 0 1 0
47695 15611 1 -1.054 16.920175311209505 2.103810891508333 -7.538960249721634 0 0 0
47014 15384 1 -1.054 11.225293365245888 -2.8846130100002085 -8.399776196465423 -1 0 0
45959 15032 2 0.527 16.538843705353717 -2.38727444249001 -7.1093194772079995 -1 1 0
47513 15550 2 0.527 11.468366027751877 -1.3959703810989748 -7.3539939301078325 -1 -1 0
47015 15384 2 0.527 10.58283636655104 -2.5434856483491477 -9.021960672225989 -1 0 0
47656 15598 1 -1.054 16.379204154843436 1.3423940348210939 -10.37103966141166 0 0 0
47868 15668 2 0.527 14.302685007845175 -1.5870814648011495 -9.020451713698248 0 0 0
47867 15668 2 0.527 13.095301101099773 -2.490331345013441 -8.885320966419718 0 0 0
47866 15668 1 -1.054 14.051347868358205 -2.5062132584637844 -8.92955197860238 0 0 0
47633 15590 2 0.527 14.432991960649389 0.7164980247351288 -7.96784117338226 -1 0 0
47632 15590 1 -1.054 14.430497698866365 0.2517415207738607 -8.804635207359508 -1 0 0
47634 15590 2 0.527 14.937230117412494 0.8124344649055157 -9.392071917712904 -1 0 0
47835 15657 2 0.527 15.278303171321612 1.9803787983993448 -6.916518701324425 0 0 0
47833 15657 1 -1.054 14.37061936927815 2.002207249146137 -6.6134256869759405 0 0 0
47514 15550 2 0.527 12.450608685043683 -0.4357832081893794 -6.71749273337629 -1 -1 0
47512 15550 1 -1.054 11.519447200693177 -0.6551233958727605 -6.750031449155244 -1 -1 0
47834 15657 2 0.527 14.112828198038727 2.9205404091533618 -6.6936776465119365 0 0 0
47674 15604 1 -1.054 -12.019350739563341 8.000378414581494 -7.409481921151794 0 0 0
47611 15583 1 -1.054 -11.23447231136751 5.073061917301428 -6.8435844795904055 0 0 0
47612 15583 2 0.527 -11.31316837951054 6.017941331368871 -6.974889850148648 0 0 0
47082 15406 2 0.527 -13.865849243648096 7.380804830928124 -6.840702394858018 3 -1 0
47081 15406 2 0.527 -15.293792794442888 7.158617090070773 -7.291816594187423 3 -1 0
47613 15583 2 0.527 -10.45711853048875 4.825138935386967 -7.344071481239085 0 0 0
47326 15488 1 -1.054 -15.22665840890925 5.044210448543875 -8.490899870768516 1 0 0
47328 15488 2 0.527 -14.766112599285679 4.236670983742402 -8.262841844465825 1 0 0
47327 15488 2 0.527 -15.559316111383573 4.889285899997516 -9.374964642658986 1 0 0
47675 15604 2 0.527 -12.207617971474319 8.935013033942626 -7.494575399107939 0 0 0
46918 15352 1 -1.054 -16.452003449329016 3.9368827442778915 -10.76365568298639 0 0 0
47080 15406 1 -1.054 -14.755815797136425 7.714846471833754 -6.728414317522081 3 -1 0
44483 14540 2 0.527 -10.265403173520374 8.429666700552454 -8.693914990294896 0 1 0
45884 15007 2 0.527 -16.478497973327205 4.941247509087819 -7.202044849938893 -1 0 0
46315 15151 1 -1.054 -16.820518158932707 9.923839797566332 -6.653582293221466 1 -1 0
46919 15352 2 0.527 -16.934829154452185 4.71110904087068 -11.05294242879316 0 0 0
47676 15604 2 0.527 -11.64243879115866 7.910207428128077 -6.534247452289286 0 0 0
47348 15495 2 0.527 -8.344866981210783 4.185370124914801 -7.9022806996232 1 -1 0
47349 15495 2 0.527 -9.556735883398844 3.6096198480039594 -8.603551163733234 1 -1 0
47347 15495 1 -1.054 -9.118677692329925 4.437490557685099 -8.406147619568287 1 -1 0
47721 15619 2 0.527 -8.475665672760169 7.541925091891937 -7.606081087134854 1 0 0
47719 15619 1 -1.054 -8.201450094265454 7.348196579898101 -6.7096970283094 1 0 0
46803 15313 2 0.527 -9.005783043891567 5.650557546892169 -11.316754988227823 -1 -1 0
46802 15313 2 0.527 -8.592797067212086 5.397332873273287 -9.882454855695675 -1 -1 0
46801 15313 1 -1.054 -8.490379034810157 6.021773415026598 -10.600661695120682 -1 -1 0
47524 15554 1 -1.054 -6.690895972247362 4.954370433777056 -7.043583392486089 0 0 0
47525 15554 2 0.527 -7.171857268455447 5.768314521813296 -6.893901767414264 0 0 0
44484 14540 2 0.527 -9.400562117522375 7.885672795038959 -9.811059224999275 0 1 0
44482 14540 1 -1.054 -9.406667504989429 8.531269945448521 -9.10437740338981 0 1 0
47132 15423 2 0.527 -6.932234769198291 6.892870762319973 -10.594202935563239 0 0 0
47131 15423 1 -1.054 -6.05359032983999 7.244150948237203 -10.738486858331472 0 0 0
47133 15423 2 0.527 -5.465966549868335 6.531949413536696 -10.486108786767815 0 0 0
46985 15374 2 0.527 -5.6891883889128945 3.5897978023170274 -9.337281728213998 0 0 0
47584 15574 1 -1.054 -5.620881313297959 8.548676385421151 -8.503377233509271 0 0 0
47586 15574 2 0.527 -5.721661390862798 8.1241705378612 -9.355361699657742 0 0 0
47720 15619 2 0.527 -7.412490315180933 7.874702672570002 -6.580990468309555 1 0 0
46984 15374 1 -1.054 -5.34737980957511 4.481735533545755 -9.27524146325112 0 0 0
46595 15244 2 0.527 -5.840518800663437 10.088541568492902 -7.531531700573269 1 -1 0
46986 15374 2 0.527 -4.547819995238977 4.396750289669068 -8.755902229786788 0 0 0
47585 15574 2 0.527 -4.900449580488014 8.07786843149578 -8.084391391095131 0 0 0
47526 15554 2 0.527 -6.127717327412907 5.142972526429443 -7.794243974255637 0 0 0
47779 15639 1 -1.054 0.1915462133820529 4.352902755782647 -6.781463803586522 0 0 0
47780 15639 2 0.527 1.101567460431823 4.193435281101722 -6.5311396271241735 0 0 0
47781 15639 2 0.527 -0.17075656746789633 3.4807847667644496 -6.937592492005122 0 0 0
47101 15413 1 -1.054 3.3169577670541104 4.50995038275938 -7.726002668676859 0 0 0
47102 15413 2 0.527 3.1110700789049788 4.936063314435706 -8.558030034379962 0 0 0
47484 15540 2 0.527 -1.563027710715491 4.932923275166585 -7.737942632932656 1 -1 0
47482 15540 1 -1.054 -2.476990067411402 5.214946038691006 -7.774945791571472 1 -1 0
47784 15640 2 0.527 1.5373728733148595 7.391546182590739 -6.804316433395342 0 0 0
47046 15394 2 0.527 -2.8155714167308377 6.877276452882323 -7.127564829885189 0 0 0
47045 15394 2 0.527 -2.635497863479078 8.368435040581575 -7.317066226455675 0 0 0
47044 15394 1 -1.054 -2.9380046680316942 7.716866219247269 -6.684470057777421 0 0 0
47483 15540 2 0.527 -2.793227962263577 5.1225328137934625 -6.8762321378960305 1 -1 0
47782 15640 1 -1.054 2.472222439089211 7.274639351183826 -6.635145300525044 0 0 0
47463 15533 2 0.527 8.5446586149051 3.4154144137688824 -7.4968154568656065 0 -1 0
47103 15413 2 0.527 4.083271562586252 4.9807804088821275 -7.398409261463093 0 0 0
47461 15533 1 -1.054 8.287065710372683 4.329298428090531 -7.375618540037082 0 -1 0
46956 15364 2 0.527 8.08973281414388 7.0277915722492335 -9.372935914178688 0 0 0
46955 15364 2 0.527 8.519570200668417 5.70354787584205 -8.778367018352592 0 0 0
46954 15364 1 -1.054 8.845741801360113 6.576349931666099 -8.99759417721965 0 0 0
47755 15631 1 -1.054 4.805946321764466 8.78947547469191 -7.078734959106871 -1 -1 0
46206 15114 2 0.527 8.332834070607847 8.843867392905677 -6.922761860606195 1 -1 0
46205 15114 2 0.527 8.911034379867989 7.535420411929803 -7.418286304613233 1 -1 0
46204 15114 1 -1.054 8.47401312867809 7.932871840360656 -6.665107584340611 1 -1 0
47757 15631 2 0.527 3.886686935013645 8.522943743909142 -7.091082103532374 -1 -1 0
47183 15440 2 0.527 6.142053306632376 7.811175394713789 -8.830471890401212 -1 0 0
47184 15440 2 0.527 5.750119038153896 8.030646316691518 -10.276191720754198 -1 0 0
47182 15440 1 -1.054 6.412970715929597 7.612357700080288 -9.726744108592676 -1 0 0
47362 15500 1 -1.054 5.706674518672546 5.5256190978252375 -6.684389193881408 0 0 0
47363 15500 2 0.527 6.525207099858223 5.475156567002075 -7.178039065860459 0 0 0
46893 15343 2 0.527 10.223342810746857 4.695986205122436 -6.859658326019677 1 -1 0
46317 15151 2 0.527 16.661901194757775 9.18858365700064 -6.778876330997631 0 -1 0
46894 15344 1 -1.054 13.322957987706863 5.009716500323713 -10.56174854314664 1 -1 0
46895 15344 2 0.527 12.539783526021328 5.556959981792822 -10.620011825015714 1 -1 0
46330 15156 1 -1.054 15.825335652392669 6.0106168521633245 -11.130941262989905 0 0 0
46331 15156 2 0.527 14.95034437614706 5.692908869780018 -10.908036614351662 0 0 0
47859 15665 2 0.527 12.857813309741111 7.298658278720389 -7.798414174233945 0 0 0
47709 15615 2 0.527 13.90772873102795 5.369781586803025 -7.514520859456081 -1 -1 0
47707 15615 1 -1.054 14.460947896785271 4.752833754000479 -7.993643614775235 -1 -1 0
47708 15615 2 0.527 14.141042037859778 4.793540523865369 -8.894885668338272 -1 -1 0
47857 15665 1 -1.054 13.218726026721317 7.017359933239957 -6.957672208603396 0 0 0
46332 15156 2 0.527 15.6898494857393 6.92001429124445 -11.397158954660332 0 0 0
47401 15513 1 -1.054 16.069432436704762 7.544116206812866 -7.2721148704788945 1 -1 0
46896 15344 2 0.527 13.003420772694826 4.117991728809779 -10.699422645136961 1 -1 0
47206 15448 1 -1.054 14.642269504109194 9.224706710071809 -9.16555841874524 0 -1 0
47877 15671 2 0.527 10.610101604423859 6.938366256427703 -9.310077172739685 0 0 0